
                    DL_POLY Classic 1.9

                              Running on    8 nodes


 ************************************************************************************************************************
 ************************************************************************************************************************
 ************************************************************************************************************************
 ***************     ex8                                                                                  ***************
 ************************************************************************************************************************
 ************************************************************************************************************************
 ************************************************************************************************************************


 SIMULATION CONTROL PARAMETERS


 simulation temperature           1.1980E+02

 simulation pressure (katm)       0.0000E+00

 selected number of timesteps       100000

 simulation timestep              1.0000E-03

 equilibration period                50000


 electrostatic potential terms off

 border width of Verlet shell     1.0000E+00

 real space cut off               8.5000E+00

 real space cut off (vdw)         8.5000E+00


 radial distribution functions on 
 g(r) collection interval               10
 g(r) bin width                   5.0000E-02

 g(r) printing option on      

 Nose-Hoover  (Melchionna) isotropic N-P-T 
 thermostat relaxation time       2.0000E+00
 barostat relaxation time         2.0000E+00

 data printing interval                100

 statistics file interval                1

 user allocated job time (h)      1.0000

 job closure time        (s)    1000.000


SYSTEM SPECIFICATION

 energy units=electron volts 


 number of molecular types               1

 molecular species type                  1


 name of species:             argon                                   

 number of molecules                   256

 number of atoms/sites                   1


 atomic characteristics:

                      site     name          mass        charge    repeat    freeze

                         1     Ar          39.95000     0.00000         1         0


 number of specified pair potentials         1


                atom 1  atom 2      key                              parameters


                Ar      Ar        nm       1.03236E-02  1.20000E+01  6.00000E+00  3.82198E+00

 configuration file name: 

          ex7                                                                             


 selected image convention               1


 simulation cell vectors


                        22.877600    0.000000    0.000000
                         0.000000   22.877600    0.000000
                         0.000000    0.000000   22.877600


 system volume            11973.7831077    


 total degrees of freedom                       765.
 rotational degrees of freedom                    0.
 shell pseudo degrees of freedom                  0.


 sample of starting configuration

      i       x(i)        y(i)        z(i)       vx(i)       vy(i)       vz(i)


      1  6.5996E+00 -3.6224E+00  8.1027E+00  3.2727E+00 -8.1157E-01 -1.6705E+00
     14 -1.0073E+01 -3.0031E+00  1.0536E+01 -4.2014E+00 -5.4101E-01 -3.3415E-01
     27 -7.7588E+00 -5.2980E+00 -6.5625E+00 -4.4163E-01 -1.4114E+00  9.4921E-02
     40  7.3829E+00 -1.0784E+01  6.0369E+00  3.0449E+00  1.1256E+00 -2.7397E-01
     53 -4.0737E+00  8.7281E+00 -6.1527E+00 -7.8205E-02  1.9754E+00  1.6740E+00
     66  9.7191E+00 -2.2744E+00  6.5486E+00  2.2247E-01  6.4046E-02 -8.9439E-01
     79 -4.5905E+00  8.0929E-01 -4.4544E+00  3.6264E-01 -1.6773E-01 -8.7458E-01
     92  3.0857E-01 -5.5898E+00  9.8558E+00  7.4311E-02  6.6915E-01  1.2864E-01
    105 -6.9340E+00 -4.3802E+00  7.2725E-01 -2.5719E+00 -2.3476E+00 -9.7288E-02
    118  7.4056E+00 -9.5620E+00  2.8489E+00 -2.9761E-01 -2.8284E+00  9.1753E-01
    131 -8.4588E+00 -7.2073E+00 -9.3915E+00 -7.9454E-01 -4.8693E+00  3.2990E+00
    144  8.2926E+00 -5.5806E+00  1.0341E+01 -9.1435E-02 -4.4473E-01 -7.7208E-01
    157  1.0550E+01  1.1169E+00 -4.6792E+00 -1.6043E-01 -8.2186E-01  7.1082E-01
    170  5.1697E+00  2.9715E+00  1.5577E+00 -2.4392E+00 -1.2685E+00 -6.8048E-01
    183  3.8762E+00 -8.1836E+00 -5.2186E+00 -4.8393E-01  5.5466E-01  4.1328E-01
    196  9.3622E+00  8.7950E+00 -5.8684E+00  8.7885E-02 -1.1424E+00 -8.1486E-01
    209 -6.1377E+00  2.2481E+00  7.7985E+00  1.2801E+00  1.6978E+00  2.7161E+00
    222  8.3088E-01  4.0031E+00  6.1811E+00  4.0610E-01  2.6513E-01 -2.6441E+00
    235  8.2421E+00 -7.8999E+00 -6.2079E+00 -9.3261E-02  6.2371E-01 -9.3502E-01
    248 -1.0312E+01  2.9875E+00  1.0317E+00  7.1739E-01 -1.7820E+00  2.8844E+00


long range correction for: vdw energy    -0.119962E+01
                         : vdw pressure  -0.316401E+00

 time elapsed since job start =           0.014 seconds

 ------------------------------------------------------------------------------------------------------------------------

     step     eng_tot    temp_tot     eng_cfg     eng_vdw     eng_cou     eng_bnd     eng_ang     eng_dih     eng_tet
 time          eng_pv    temp_rot     vir_cfg     vir_vdw     vir_cou     vir_bnd     vir_ang     vir_con     vir_tet
 cpu time      volume    temp_shl     eng_shl     vir_shl       alpha        beta       gamma     vir_pmf       press

 ------------------------------------------------------------------------------------------------------------------------
        1 -1.1930E+01  1.1973E+02 -1.5877E+01 -1.5877E+01  0.0000E+00  0.0000E+00  0.0000E+00  0.0000E+00  0.0000E+00
   1.000f -9.5146E+00  0.0000E+00  6.4644E-01  6.4644E-01  0.0000E+00  0.0000E+00  0.0000E+00  0.0000E+00  0.0000E+00
   0.015s  1.1974E+04  0.0000E+00  0.0000E+00  0.0000E+00  9.0000E+01  9.0000E+01  9.0000E+01  0.0000E+00  3.1899E-01

  rolling -1.1930E+01  1.1973E+02 -1.5877E+01 -1.5877E+01  0.0000E+00  0.0000E+00  0.0000E+00  0.0000E+00  0.0000E+00
 averages -9.5146E+00  0.0000E+00  6.4644E-01  6.4644E-01  0.0000E+00  0.0000E+00  0.0000E+00  0.0000E+00  0.0000E+00
           1.1974E+04  0.0000E+00  0.0000E+00  0.0000E+00  9.0000E+01  9.0000E+01  9.0000E+01  0.0000E+00  3.1899E-01
 ------------------------------------------------------------------------------------------------------------------------
      100 -1.1927E+01  1.0805E+02 -1.5504E+01 -1.5504E+01  0.0000E+00  0.0000E+00  0.0000E+00  0.0000E+00  0.0000E+00
 100.000f -8.2527E+00  0.0000E+00 -3.9470E+00 -3.9470E+00  0.0000E+00  0.0000E+00  0.0000E+00  0.0000E+00  0.0000E+00
   0.076s  1.2029E+04  0.0000E+00  0.0000E+00  0.0000E+00  9.0000E+01  9.0000E+01  9.0000E+01  0.0000E+00  4.8506E-01

  rolling -1.1930E+01  1.1203E+02 -1.5627E+01 -1.5627E+01  0.0000E+00  0.0000E+00  0.0000E+00  0.0000E+00  0.0000E+00
 averages -8.5169E+00  0.0000E+00 -2.8675E+00 -2.8675E+00  0.0000E+00  0.0000E+00  0.0000E+00  0.0000E+00  0.0000E+00
           1.1991E+04  0.0000E+00  0.0000E+00  0.0000E+00  9.0000E+01  9.0000E+01  9.0000E+01  0.0000E+00  4.5058E-01
 ------------------------------------------------------------------------------------------------------------------------
      200 -1.1920E+01  1.0936E+02 -1.5576E+01 -1.5576E+01  0.0000E+00  0.0000E+00  0.0000E+00  0.0000E+00  0.0000E+00
 200.000f -1.0292E+01  0.0000E+00  2.1730E+00  2.1730E+00  0.0000E+00  0.0000E+00  0.0000E+00  0.0000E+00  0.0000E+00
   0.120s  1.2200E+04  0.0000E+00  0.0000E+00  0.0000E+00  9.0000E+01  9.0000E+01  9.0000E+01  0.0000E+00  2.1758E-01

  rolling -1.1924E+01  1.0901E+02 -1.5551E+01 -1.5551E+01  0.0000E+00  0.0000E+00  0.0000E+00  0.0000E+00  0.0000E+00
 averages -9.2269E+00  0.0000E+00 -1.0076E+00 -1.0076E+00  0.0000E+00  0.0000E+00  0.0000E+00  0.0000E+00  0.0000E+00
           1.2107E+04  0.0000E+00  0.0000E+00  0.0000E+00  9.0000E+01  9.0000E+01  9.0000E+01  0.0000E+00  3.5704E-01
 ------------------------------------------------------------------------------------------------------------------------
      300 -1.1925E+01  1.0598E+02 -1.5477E+01 -1.5477E+01  0.0000E+00  0.0000E+00  0.0000E+00  0.0000E+00  0.0000E+00
 300.000f -1.1990E+01  0.0000E+00  7.0060E+00  7.0060E+00  0.0000E+00  0.0000E+00  0.0000E+00  0.0000E+00  0.0000E+00
   0.161s  1.2431E+04  0.0000E+00  0.0000E+00  0.0000E+00  9.0000E+01  9.0000E+01  9.0000E+01  0.0000E+00 -8.1289E-04

  rolling -1.1924E+01  1.0942E+02 -1.5588E+01 -1.5588E+01  0.0000E+00  0.0000E+00  0.0000E+00  0.0000E+00  0.0000E+00
 averages -1.1433E+01  0.0000E+00  5.5692E+00  5.5692E+00  0.0000E+00  0.0000E+00  0.0000E+00  0.0000E+00  0.0000E+00
           1.2315E+04  0.0000E+00  0.0000E+00  0.0000E+00  9.0000E+01  9.0000E+01  9.0000E+01  0.0000E+00  7.0746E-02
 ------------------------------------------------------------------------------------------------------------------------
      400 -1.1930E+01  9.0013E+01 -1.4955E+01 -1.4955E+01  0.0000E+00  0.0000E+00  0.0000E+00  0.0000E+00  0.0000E+00
 400.000f -1.1745E+01  0.0000E+00  5.2051E+00  5.2051E+00  0.0000E+00  0.0000E+00  0.0000E+00  0.0000E+00  0.0000E+00
   0.201s  1.2674E+04  0.0000E+00  0.0000E+00  0.0000E+00  9.0000E+01  9.0000E+01  9.0000E+01  0.0000E+00  3.0309E-02

  rolling -1.1927E+01  9.7029E+01 -1.5184E+01 -1.5184E+01  0.0000E+00  0.0000E+00  0.0000E+00  0.0000E+00  0.0000E+00
 averages -1.1719E+01  0.0000E+00  5.5984E+00  5.5984E+00  0.0000E+00  0.0000E+00  0.0000E+00  0.0000E+00  0.0000E+00
           1.2552E+04  0.0000E+00  0.0000E+00  0.0000E+00  9.0000E+01  9.0000E+01  9.0000E+01  0.0000E+00  3.3431E-02
 ------------------------------------------------------------------------------------------------------------------------
      500 -1.1934E+01  9.5972E+01 -1.5128E+01 -1.5128E+01  0.0000E+00  0.0000E+00  0.0000E+00  0.0000E+00  0.0000E+00
 500.000f -1.4658E+01  0.0000E+00  1.4408E+01  1.4408E+01  0.0000E+00  0.0000E+00  0.0000E+00  0.0000E+00  0.0000E+00
   0.242s  1.2917E+04  0.0000E+00  0.0000E+00  0.0000E+00  9.0000E+01  9.0000E+01  9.0000E+01  0.0000E+00 -3.2977E-01

  rolling -1.1932E+01  9.2187E+01 -1.5020E+01 -1.5020E+01  0.0000E+00  0.0000E+00  0.0000E+00  0.0000E+00  0.0000E+00
 averages -1.3140E+01  0.0000E+00  9.5515E+00  9.5515E+00  0.0000E+00  0.0000E+00  0.0000E+00  0.0000E+00  0.0000E+00
           1.2800E+04  0.0000E+00  0.0000E+00  0.0000E+00  9.0000E+01  9.0000E+01  9.0000E+01  0.0000E+00 -1.4245E-01
 ------------------------------------------------------------------------------------------------------------------------
      600 -1.1934E+01  9.2188E+01 -1.4952E+01 -1.4952E+01  0.0000E+00  0.0000E+00  0.0000E+00  0.0000E+00  0.0000E+00
 600.000f -1.5104E+01  0.0000E+00  1.5647E+01  1.5647E+01  0.0000E+00  0.0000E+00  0.0000E+00  0.0000E+00  0.0000E+00
   0.282s  1.3072E+04  0.0000E+00  0.0000E+00  0.0000E+00  9.0000E+01  9.0000E+01  9.0000E+01  0.0000E+00 -3.8586E-01

  rolling -1.1933E+01  9.5764E+01 -1.5092E+01 -1.5092E+01  0.0000E+00  0.0000E+00  0.0000E+00  0.0000E+00  0.0000E+00
 averages -1.5229E+01  0.0000E+00  1.6194E+01  1.6194E+01  0.0000E+00  0.0000E+00  0.0000E+00  0.0000E+00  0.0000E+00
           1.3005E+04  0.0000E+00  0.0000E+00  0.0000E+00  9.0000E+01  9.0000E+01  9.0000E+01  0.0000E+00 -4.0039E-01
 ------------------------------------------------------------------------------------------------------------------------
      700 -1.1932E+01  8.5776E+01 -1.4716E+01 -1.4716E+01  0.0000E+00  0.0000E+00  0.0000E+00  0.0000E+00  0.0000E+00
 700.000f -1.4225E+01  0.0000E+00  1.2663E+01  1.2663E+01  0.0000E+00  0.0000E+00  0.0000E+00  0.0000E+00  0.0000E+00
   0.321s  1.3114E+04  0.0000E+00  0.0000E+00  0.0000E+00  9.0000E+01  9.0000E+01  9.0000E+01  0.0000E+00 -2.8169E-01

  rolling -1.1932E+01  8.7904E+01 -1.4796E+01 -1.4796E+01  0.0000E+00  0.0000E+00  0.0000E+00  0.0000E+00  0.0000E+00
 averages -1.4558E+01  0.0000E+00  1.3774E+01  1.3774E+01  0.0000E+00  0.0000E+00  0.0000E+00  0.0000E+00  0.0000E+00
           1.3101E+04  0.0000E+00  0.0000E+00  0.0000E+00  9.0000E+01  9.0000E+01  9.0000E+01  0.0000E+00 -3.2104E-01
 ------------------------------------------------------------------------------------------------------------------------
 ------------------------------------------------------------------------------------------------------------------------

     step     eng_tot    temp_tot     eng_cfg     eng_vdw     eng_cou     eng_bnd     eng_ang     eng_dih     eng_tet
 time          eng_pv    temp_rot     vir_cfg     vir_vdw     vir_cou     vir_bnd     vir_ang     vir_con     vir_tet
 cpu time      volume    temp_shl     eng_shl     vir_shl       alpha        beta       gamma     vir_pmf       press

 ------------------------------------------------------------------------------------------------------------------------
      800 -1.1930E+01  8.9106E+01 -1.4815E+01 -1.4815E+01  0.0000E+00  0.0000E+00  0.0000E+00  0.0000E+00  0.0000E+00
 800.000f -1.4156E+01  0.0000E+00  1.2708E+01  1.2708E+01  0.0000E+00  0.0000E+00  0.0000E+00  0.0000E+00  0.0000E+00
   0.357s  1.3066E+04  0.0000E+00  0.0000E+00  0.0000E+00  9.0000E+01  9.0000E+01  9.0000E+01  0.0000E+00 -2.7569E-01

  rolling -1.1931E+01  8.7074E+01 -1.4753E+01 -1.4753E+01  0.0000E+00  0.0000E+00  0.0000E+00  0.0000E+00  0.0000E+00
 averages -1.4192E+01  0.0000E+00  1.2668E+01  1.2668E+01  0.0000E+00  0.0000E+00  0.0000E+00  0.0000E+00  0.0000E+00
           1.3097E+04  0.0000E+00  0.0000E+00  0.0000E+00  9.0000E+01  9.0000E+01  9.0000E+01  0.0000E+00 -2.7881E-01
 ------------------------------------------------------------------------------------------------------------------------
      900 -1.1930E+01  9.1575E+01 -1.4893E+01 -1.4893E+01  0.0000E+00  0.0000E+00  0.0000E+00  0.0000E+00  0.0000E+00
 900.000f -1.3260E+01  0.0000E+00  1.0194E+01  1.0194E+01  0.0000E+00  0.0000E+00  0.0000E+00  0.0000E+00  0.0000E+00
   0.392s  1.2937E+04  0.0000E+00  0.0000E+00  0.0000E+00  9.0000E+01  9.0000E+01  9.0000E+01  0.0000E+00 -1.6936E-01

  rolling -1.1931E+01  9.0365E+01 -1.4856E+01 -1.4856E+01  0.0000E+00  0.0000E+00  0.0000E+00  0.0000E+00  0.0000E+00
 averages -1.3770E+01  0.0000E+00  1.1633E+01  1.1633E+01  0.0000E+00  0.0000E+00  0.0000E+00  0.0000E+00  0.0000E+00
           1.3007E+04  0.0000E+00  0.0000E+00  0.0000E+00  9.0000E+01  9.0000E+01  9.0000E+01  0.0000E+00 -2.2993E-01
 ------------------------------------------------------------------------------------------------------------------------
     1000 -1.1926E+01  9.4053E+01 -1.4954E+01 -1.4954E+01  0.0000E+00  0.0000E+00  0.0000E+00  0.0000E+00  0.0000E+00
   1.000p -1.1768E+01  0.0000E+00  5.9433E+00  5.9433E+00  0.0000E+00  0.0000E+00  0.0000E+00  0.0000E+00  0.0000E+00
   0.430s  1.2761E+04  0.0000E+00  0.0000E+00  0.0000E+00  9.0000E+01  9.0000E+01  9.0000E+01  0.0000E+00  1.0616E-02

  rolling -1.1927E+01  9.2674E+01 -1.4919E+01 -1.4919E+01  0.0000E+00  0.0000E+00  0.0000E+00  0.0000E+00  0.0000E+00
 averages -1.2515E+01  0.0000E+00  8.0597E+00  8.0597E+00  0.0000E+00  0.0000E+00  0.0000E+00  0.0000E+00  0.0000E+00
           1.2850E+04  0.0000E+00  0.0000E+00  0.0000E+00  9.0000E+01  9.0000E+01  9.0000E+01  0.0000E+00 -7.9786E-02
 ------------------------------------------------------------------------------------------------------------------------
     1100 -1.1923E+01  9.7614E+01 -1.5027E+01 -1.5027E+01  0.0000E+00  0.0000E+00  0.0000E+00  0.0000E+00  0.0000E+00
   1.100p -1.0320E+01  0.0000E+00  1.9681E+00  1.9681E+00  0.0000E+00  0.0000E+00  0.0000E+00  0.0000E+00  0.0000E+00
   0.472s  1.2590E+04  0.0000E+00  0.0000E+00  0.0000E+00  9.0000E+01  9.0000E+01  9.0000E+01  0.0000E+00  1.8701E-01

  rolling -1.1924E+01  9.6317E+01 -1.5007E+01 -1.5007E+01  0.0000E+00  0.0000E+00  0.0000E+00  0.0000E+00  0.0000E+00
 averages -1.1084E+01  0.0000E+00  4.1032E+00  4.1032E+00  0.0000E+00  0.0000E+00  0.0000E+00  0.0000E+00  0.0000E+00
           1.2672E+04  0.0000E+00  0.0000E+00  0.0000E+00  9.0000E+01  9.0000E+01  9.0000E+01  0.0000E+00  9.3620E-02
 ------------------------------------------------------------------------------------------------------------------------
     1200 -1.1925E+01  1.0071E+02 -1.5078E+01 -1.5078E+01  0.0000E+00  0.0000E+00  0.0000E+00  0.0000E+00  0.0000E+00
   1.200p -9.3783E+00  0.0000E+00 -5.0094E-01 -5.0094E-01  0.0000E+00  0.0000E+00  0.0000E+00  0.0000E+00  0.0000E+00
   0.509s  1.2471E+04  0.0000E+00  0.0000E+00  0.0000E+00  9.0000E+01  9.0000E+01  9.0000E+01  0.0000E+00  3.0176E-01

  rolling -1.1924E+01  9.8872E+01 -1.5043E+01 -1.5043E+01  0.0000E+00  0.0000E+00  0.0000E+00  0.0000E+00  0.0000E+00
 averages -9.7231E+00  0.0000E+00  3.3527E-01  3.3527E-01  0.0000E+00  0.0000E+00  0.0000E+00  0.0000E+00  0.0000E+00
           1.2524E+04  0.0000E+00  0.0000E+00  0.0000E+00  9.0000E+01  9.0000E+01  9.0000E+01  0.0000E+00  2.6029E-01
 ------------------------------------------------------------------------------------------------------------------------
     1300 -1.1922E+01  1.1193E+02 -1.5399E+01 -1.5399E+01  0.0000E+00  0.0000E+00  0.0000E+00  0.0000E+00  0.0000E+00
   1.300p -1.0509E+01  0.0000E+00  3.7749E+00  3.7749E+00  0.0000E+00  0.0000E+00  0.0000E+00  0.0000E+00  0.0000E+00
   0.546s  1.2430E+04  0.0000E+00  0.0000E+00  0.0000E+00  9.0000E+01  9.0000E+01  9.0000E+01  0.0000E+00  1.5282E-01

  rolling -1.1925E+01  1.0572E+02 -1.5219E+01 -1.5219E+01  0.0000E+00  0.0000E+00  0.0000E+00  0.0000E+00  0.0000E+00
 averages -9.8144E+00  0.0000E+00  1.2083E+00  1.2083E+00  0.0000E+00  0.0000E+00  0.0000E+00  0.0000E+00  0.0000E+00
           1.2445E+04  0.0000E+00  0.0000E+00  0.0000E+00  9.0000E+01  9.0000E+01  9.0000E+01  0.0000E+00  2.4396E-01
 ------------------------------------------------------------------------------------------------------------------------
     1400 -1.1924E+01  1.0294E+02 -1.5066E+01 -1.5066E+01  0.0000E+00  0.0000E+00  0.0000E+00  0.0000E+00  0.0000E+00
   1.400p -9.3054E+00  0.0000E+00 -3.1641E-01 -3.1641E-01  0.0000E+00  0.0000E+00  0.0000E+00  0.0000E+00  0.0000E+00
   0.586s  1.2445E+04  0.0000E+00  0.0000E+00  0.0000E+00  9.0000E+01  9.0000E+01  9.0000E+01  0.0000E+00  3.0081E-01

  rolling -1.1924E+01  1.0828E+02 -1.5260E+01 -1.5260E+01  0.0000E+00  0.0000E+00  0.0000E+00  0.0000E+00  0.0000E+00
 averages -9.9748E+00  0.0000E+00  1.9904E+00  1.9904E+00  0.0000E+00  0.0000E+00  0.0000E+00  0.0000E+00  0.0000E+00
           1.2432E+04  0.0000E+00  0.0000E+00  0.0000E+00  9.0000E+01  9.0000E+01  9.0000E+01  0.0000E+00  2.1822E-01
 ------------------------------------------------------------------------------------------------------------------------
     1500 -1.1925E+01  1.1050E+02 -1.5281E+01 -1.5281E+01  0.0000E+00  0.0000E+00  0.0000E+00  0.0000E+00  0.0000E+00
   1.500p -1.0972E+01  0.0000E+00  5.2831E+00  5.2831E+00  0.0000E+00  0.0000E+00  0.0000E+00  0.0000E+00  0.0000E+00
   0.622s  1.2527E+04  0.0000E+00  0.0000E+00  0.0000E+00  9.0000E+01  9.0000E+01  9.0000E+01  0.0000E+00  8.4206E-02

  rolling -1.1925E+01  1.0726E+02 -1.5193E+01 -1.5193E+01  0.0000E+00  0.0000E+00  0.0000E+00  0.0000E+00  0.0000E+00
 averages -1.0187E+01  0.0000E+00  2.6603E+00  2.6603E+00  0.0000E+00  0.0000E+00  0.0000E+00  0.0000E+00  0.0000E+00
           1.2482E+04  0.0000E+00  0.0000E+00  0.0000E+00  9.0000E+01  9.0000E+01  9.0000E+01  0.0000E+00  1.8638E-01
 ------------------------------------------------------------------------------------------------------------------------
 ------------------------------------------------------------------------------------------------------------------------

     step     eng_tot    temp_tot     eng_cfg     eng_vdw     eng_cou     eng_bnd     eng_ang     eng_dih     eng_tet
 time          eng_pv    temp_rot     vir_cfg     vir_vdw     vir_cou     vir_bnd     vir_ang     vir_con     vir_tet
 cpu time      volume    temp_shl     eng_shl     vir_shl       alpha        beta       gamma     vir_pmf       press

 ------------------------------------------------------------------------------------------------------------------------
     1600 -1.1929E+01  1.0393E+02 -1.5032E+01 -1.5032E+01  0.0000E+00  0.0000E+00  0.0000E+00  0.0000E+00  0.0000E+00
   1.600p -1.0898E+01  0.0000E+00  4.7276E+00  4.7276E+00  0.0000E+00  0.0000E+00  0.0000E+00  0.0000E+00  0.0000E+00
   0.659s  1.2643E+04  0.0000E+00  0.0000E+00  0.0000E+00  9.0000E+01  9.0000E+01  9.0000E+01  0.0000E+00  8.8541E-02

  rolling -1.1928E+01  1.0691E+02 -1.5147E+01 -1.5147E+01  0.0000E+00  0.0000E+00  0.0000E+00  0.0000E+00  0.0000E+00
 averages -1.0882E+01  0.0000E+00  4.8232E+00  4.8232E+00  0.0000E+00  0.0000E+00  0.0000E+00  0.0000E+00  0.0000E+00
           1.2583E+04  0.0000E+00  0.0000E+00  0.0000E+00  9.0000E+01  9.0000E+01  9.0000E+01  0.0000E+00  9.3178E-02
 ------------------------------------------------------------------------------------------------------------------------
     1700 -1.1932E+01  1.0246E+02 -1.4944E+01 -1.4944E+01  0.0000E+00  0.0000E+00  0.0000E+00  0.0000E+00  0.0000E+00
   1.700p -1.1806E+01  0.0000E+00  7.4715E+00  7.4715E+00  0.0000E+00  0.0000E+00  0.0000E+00  0.0000E+00  0.0000E+00
   0.693s  1.2783E+04  0.0000E+00  0.0000E+00  0.0000E+00  9.0000E+01  9.0000E+01  9.0000E+01  0.0000E+00 -2.9566E-02

  rolling -1.1930E+01  1.0297E+02 -1.4980E+01 -1.4980E+01  0.0000E+00  0.0000E+00  0.0000E+00  0.0000E+00  0.0000E+00
 averages -1.1310E+01  0.0000E+00  5.9594E+00  5.9594E+00  0.0000E+00  0.0000E+00  0.0000E+00  0.0000E+00  0.0000E+00
           1.2713E+04  0.0000E+00  0.0000E+00  0.0000E+00  9.0000E+01  9.0000E+01  9.0000E+01  0.0000E+00  3.4460E-02
 ------------------------------------------------------------------------------------------------------------------------
     1800 -1.1937E+01  1.0358E+02 -1.4930E+01 -1.4930E+01  0.0000E+00  0.0000E+00  0.0000E+00  0.0000E+00  0.0000E+00
   1.800p -1.2931E+01  0.0000E+00  1.1075E+01  1.1075E+01  0.0000E+00  0.0000E+00  0.0000E+00  0.0000E+00  0.0000E+00
   0.727s  1.2915E+04  0.0000E+00  0.0000E+00  0.0000E+00  9.0000E+01  9.0000E+01  9.0000E+01  0.0000E+00 -1.7331E-01

  rolling -1.1935E+01  1.0324E+02 -1.4945E+01 -1.4945E+01  0.0000E+00  0.0000E+00  0.0000E+00  0.0000E+00  0.0000E+00
 averages -1.2436E+01  0.0000E+00  9.4882E+00  9.4882E+00  0.0000E+00  0.0000E+00  0.0000E+00  0.0000E+00  0.0000E+00
           1.2853E+04  0.0000E+00  0.0000E+00  0.0000E+00  9.0000E+01  9.0000E+01  9.0000E+01  0.0000E+00 -1.0987E-01
 ------------------------------------------------------------------------------------------------------------------------
     1900 -1.1931E+01  1.0283E+02 -1.4838E+01 -1.4838E+01  0.0000E+00  0.0000E+00  0.0000E+00  0.0000E+00  0.0000E+00
   1.900p -1.3176E+01  0.0000E+00  1.1961E+01  1.1961E+01  0.0000E+00  0.0000E+00  0.0000E+00  0.0000E+00  0.0000E+00
   0.761s  1.2999E+04  0.0000E+00  0.0000E+00  0.0000E+00  9.0000E+01  9.0000E+01  9.0000E+01  0.0000E+00 -2.1013E-01

  rolling -1.1935E+01  1.0331E+02 -1.4888E+01 -1.4888E+01  0.0000E+00  0.0000E+00  0.0000E+00  0.0000E+00  0.0000E+00
 averages -1.3136E+01  0.0000E+00  1.1772E+01  1.1772E+01  0.0000E+00  0.0000E+00  0.0000E+00  0.0000E+00  0.0000E+00
           1.2963E+04  0.0000E+00  0.0000E+00  0.0000E+00  9.0000E+01  9.0000E+01  9.0000E+01  0.0000E+00 -2.0171E-01
 ------------------------------------------------------------------------------------------------------------------------
     2000 -1.1931E+01  9.8553E+01 -1.4643E+01 -1.4643E+01  0.0000E+00  0.0000E+00  0.0000E+00  0.0000E+00  0.0000E+00
   2.000p -1.2429E+01  0.0000E+00  9.6002E+00  9.6002E+00  0.0000E+00  0.0000E+00  0.0000E+00  0.0000E+00  0.0000E+00
   0.794s  1.3026E+04  0.0000E+00  0.0000E+00  0.0000E+00  9.0000E+01  9.0000E+01  9.0000E+01  0.0000E+00 -1.2557E-01

  rolling -1.1932E+01  9.9738E+01 -1.4709E+01 -1.4709E+01  0.0000E+00  0.0000E+00  0.0000E+00  0.0000E+00  0.0000E+00
 averages -1.2693E+01  0.0000E+00  1.0389E+01  1.0389E+01  0.0000E+00  0.0000E+00  0.0000E+00  0.0000E+00  0.0000E+00
           1.3017E+04  0.0000E+00  0.0000E+00  0.0000E+00  9.0000E+01  9.0000E+01  9.0000E+01  0.0000E+00 -1.5446E-01
 ------------------------------------------------------------------------------------------------------------------------
     2100 -1.1927E+01  1.0289E+02 -1.4730E+01 -1.4730E+01  0.0000E+00  0.0000E+00  0.0000E+00  0.0000E+00  0.0000E+00
   2.100p -1.2562E+01  0.0000E+00  1.0453E+01  1.0453E+01  0.0000E+00  0.0000E+00  0.0000E+00  0.0000E+00  0.0000E+00
   0.836s  1.3009E+04  0.0000E+00  0.0000E+00  0.0000E+00  9.0000E+01  9.0000E+01  9.0000E+01  0.0000E+00 -1.4870E-01

  rolling -1.1927E+01  1.0144E+02 -1.4708E+01 -1.4708E+01  0.0000E+00  0.0000E+00  0.0000E+00  0.0000E+00  0.0000E+00
 averages -1.2626E+01  0.0000E+00  1.0470E+01  1.0470E+01  0.0000E+00  0.0000E+00  0.0000E+00  0.0000E+00  0.0000E+00
           1.3022E+04  0.0000E+00  0.0000E+00  0.0000E+00  9.0000E+01  9.0000E+01  9.0000E+01  0.0000E+00 -1.5312E-01
 ------------------------------------------------------------------------------------------------------------------------
     2200 -1.1927E+01  1.0505E+02 -1.4747E+01 -1.4747E+01  0.0000E+00  0.0000E+00  0.0000E+00  0.0000E+00  0.0000E+00
   2.200p -1.1908E+01  0.0000E+00  8.7972E+00  8.7972E+00  0.0000E+00  0.0000E+00  0.0000E+00  0.0000E+00  0.0000E+00
   0.873s  1.2949E+04  0.0000E+00  0.0000E+00  0.0000E+00  9.0000E+01  9.0000E+01  9.0000E+01  0.0000E+00 -7.6184E-02

  rolling -1.1927E+01  1.0396E+02 -1.4738E+01 -1.4738E+01  0.0000E+00  0.0000E+00  0.0000E+00  0.0000E+00  0.0000E+00
 averages -1.2266E+01  0.0000E+00  9.7182E+00  9.7182E+00  0.0000E+00  0.0000E+00  0.0000E+00  0.0000E+00  0.0000E+00
           1.2982E+04  0.0000E+00  0.0000E+00  0.0000E+00  9.0000E+01  9.0000E+01  9.0000E+01  0.0000E+00 -1.1628E-01
 ------------------------------------------------------------------------------------------------------------------------
     2300 -1.1928E+01  1.0332E+02 -1.4630E+01 -1.4630E+01  0.0000E+00  0.0000E+00  0.0000E+00  0.0000E+00  0.0000E+00
   2.300p -1.0397E+01  0.0000E+00  4.3295E+00  4.3295E+00  0.0000E+00  0.0000E+00  0.0000E+00  0.0000E+00  0.0000E+00
   0.911s  1.2869E+04  0.0000E+00  0.0000E+00  0.0000E+00  9.0000E+01  9.0000E+01  9.0000E+01  0.0000E+00  1.0164E-01

  rolling -1.1928E+01  1.0477E+02 -1.4709E+01 -1.4709E+01  0.0000E+00  0.0000E+00  0.0000E+00  0.0000E+00  0.0000E+00
 averages -1.1234E+01  0.0000E+00  6.8426E+00  6.8426E+00  0.0000E+00  0.0000E+00  0.0000E+00  0.0000E+00  0.0000E+00
           1.2909E+04  0.0000E+00  0.0000E+00  0.0000E+00  9.0000E+01  9.0000E+01  9.0000E+01  0.0000E+00  2.7083E-03
 ------------------------------------------------------------------------------------------------------------------------
 ------------------------------------------------------------------------------------------------------------------------

     step     eng_tot    temp_tot     eng_cfg     eng_vdw     eng_cou     eng_bnd     eng_ang     eng_dih     eng_tet
 time          eng_pv    temp_rot     vir_cfg     vir_vdw     vir_cou     vir_bnd     vir_ang     vir_con     vir_tet
 cpu time      volume    temp_shl     eng_shl     vir_shl       alpha        beta       gamma     vir_pmf       press

 ------------------------------------------------------------------------------------------------------------------------
     2400 -1.1934E+01  1.0515E+02 -1.4629E+01 -1.4629E+01  0.0000E+00  0.0000E+00  0.0000E+00  0.0000E+00  0.0000E+00
   2.400p -9.7799E+00  0.0000E+00  2.7839E+00  2.7839E+00  0.0000E+00  0.0000E+00  0.0000E+00  0.0000E+00  0.0000E+00
   0.946s  1.2816E+04  0.0000E+00  0.0000E+00  0.0000E+00  9.0000E+01  9.0000E+01  9.0000E+01  0.0000E+00  1.7060E-01

  rolling -1.1931E+01  1.0339E+02 -1.4601E+01 -1.4601E+01  0.0000E+00  0.0000E+00  0.0000E+00  0.0000E+00  0.0000E+00
 averages -9.9040E+00  0.0000E+00  2.9476E+00  2.9476E+00  0.0000E+00  0.0000E+00  0.0000E+00  0.0000E+00  0.0000E+00
           1.2838E+04  0.0000E+00  0.0000E+00  0.0000E+00  9.0000E+01  9.0000E+01  9.0000E+01  0.0000E+00  1.5883E-01
 ------------------------------------------------------------------------------------------------------------------------
     2500 -1.1933E+01  1.1211E+02 -1.4790E+01 -1.4790E+01  0.0000E+00  0.0000E+00  0.0000E+00  0.0000E+00  0.0000E+00
   2.500p -1.0560E+01  0.0000E+00  5.7859E+00  5.7859E+00  0.0000E+00  0.0000E+00  0.0000E+00  0.0000E+00  0.0000E+00
   0.981s  1.2811E+04  0.0000E+00  0.0000E+00  0.0000E+00  9.0000E+01  9.0000E+01  9.0000E+01  0.0000E+00  6.6034E-02

  rolling -1.1934E+01  1.0753E+02 -1.4674E+01 -1.4674E+01  0.0000E+00  0.0000E+00  0.0000E+00  0.0000E+00  0.0000E+00
 averages -9.9896E+00  0.0000E+00  3.6699E+00  3.6699E+00  0.0000E+00  0.0000E+00  0.0000E+00  0.0000E+00  0.0000E+00
           1.2810E+04  0.0000E+00  0.0000E+00  0.0000E+00  9.0000E+01  9.0000E+01  9.0000E+01  0.0000E+00  1.4068E-01
 ------------------------------------------------------------------------------------------------------------------------
     2600 -1.1936E+01  1.1590E+02 -1.4844E+01 -1.4844E+01  0.0000E+00  0.0000E+00  0.0000E+00  0.0000E+00  0.0000E+00
   2.600p -1.0836E+01  0.0000E+00  7.0772E+00  7.0772E+00  0.0000E+00  0.0000E+00  0.0000E+00  0.0000E+00  0.0000E+00
   1.015s  1.2827E+04  0.0000E+00  0.0000E+00  0.0000E+00  9.0000E+01  9.0000E+01  9.0000E+01  0.0000E+00  2.3136E-02

  rolling -1.1935E+01  1.1548E+02 -1.4866E+01 -1.4866E+01  0.0000E+00  0.0000E+00  0.0000E+00  0.0000E+00  0.0000E+00
 averages -1.0933E+01  0.0000E+00  7.2317E+00  7.2317E+00  0.0000E+00  0.0000E+00  0.0000E+00  0.0000E+00  0.0000E+00
           1.2819E+04  0.0000E+00  0.0000E+00  0.0000E+00  9.0000E+01  9.0000E+01  9.0000E+01  0.0000E+00  1.5668E-02
 ------------------------------------------------------------------------------------------------------------------------
     2700 -1.1932E+01  1.1022E+02 -1.4583E+01 -1.4583E+01  0.0000E+00  0.0000E+00  0.0000E+00  0.0000E+00  0.0000E+00
   2.700p -9.6429E+00  0.0000E+00  3.3439E+00  3.3439E+00  0.0000E+00  0.0000E+00  0.0000E+00  0.0000E+00  0.0000E+00
   1.050s  1.2856E+04  0.0000E+00  0.0000E+00  0.0000E+00  9.0000E+01  9.0000E+01  9.0000E+01  0.0000E+00  1.6081E-01

  rolling -1.1934E+01  1.1264E+02 -1.4699E+01 -1.4699E+01  0.0000E+00  0.0000E+00  0.0000E+00  0.0000E+00  0.0000E+00
 averages -1.0168E+01  0.0000E+00  4.9707E+00  4.9707E+00  0.0000E+00  0.0000E+00  0.0000E+00  0.0000E+00  0.0000E+00
           1.2839E+04  0.0000E+00  0.0000E+00  0.0000E+00  9.0000E+01  9.0000E+01  9.0000E+01  0.0000E+00  1.0074E-01
 ------------------------------------------------------------------------------------------------------------------------
     2800 -1.1931E+01  1.1032E+02 -1.4519E+01 -1.4519E+01  0.0000E+00  0.0000E+00  0.0000E+00  0.0000E+00  0.0000E+00
   2.800p -9.4138E+00  0.0000E+00  2.8663E+00  2.8663E+00  0.0000E+00  0.0000E+00  0.0000E+00  0.0000E+00  0.0000E+00
   1.084s  1.2926E+04  0.0000E+00  0.0000E+00  0.0000E+00  9.0000E+01  9.0000E+01  9.0000E+01  0.0000E+00  1.7967E-01

  rolling -1.1931E+01  1.1225E+02 -1.4615E+01 -1.4615E+01  0.0000E+00  0.0000E+00  0.0000E+00  0.0000E+00  0.0000E+00
 averages -9.7687E+00  0.0000E+00  3.9603E+00  3.9603E+00  0.0000E+00  0.0000E+00  0.0000E+00  0.0000E+00  0.0000E+00
           1.2888E+04  0.0000E+00  0.0000E+00  0.0000E+00  9.0000E+01  9.0000E+01  9.0000E+01  0.0000E+00  1.4066E-01
 ------------------------------------------------------------------------------------------------------------------------
     2900 -1.1933E+01  1.0766E+02 -1.4380E+01 -1.4380E+01  0.0000E+00  0.0000E+00  0.0000E+00  0.0000E+00  0.0000E+00
   2.900p -9.7296E+00  0.0000E+00  3.7910E+00  3.7910E+00  0.0000E+00  0.0000E+00  0.0000E+00  0.0000E+00  0.0000E+00
   1.118s  1.3054E+04  0.0000E+00  0.0000E+00  0.0000E+00  9.0000E+01  9.0000E+01  9.0000E+01  0.0000E+00  1.3350E-01

  rolling -1.1931E+01  1.0555E+02 -1.4335E+01 -1.4335E+01  0.0000E+00  0.0000E+00  0.0000E+00  0.0000E+00  0.0000E+00
 averages -8.9961E+00  0.0000E+00  1.3791E+00  1.3791E+00  0.0000E+00  0.0000E+00  0.0000E+00  0.0000E+00  0.0000E+00
           1.2984E+04  0.0000E+00  0.0000E+00  0.0000E+00  9.0000E+01  9.0000E+01  9.0000E+01  0.0000E+00  2.2651E-01
 ------------------------------------------------------------------------------------------------------------------------
     3000 -1.1928E+01  1.1466E+02 -1.4528E+01 -1.4528E+01  0.0000E+00  0.0000E+00  0.0000E+00  0.0000E+00  0.0000E+00
   3.000p -1.1958E+01  0.0000E+00  1.1187E+01  1.1187E+01  0.0000E+00  0.0000E+00  0.0000E+00  0.0000E+00  0.0000E+00
   1.157s  1.3221E+04  0.0000E+00  0.0000E+00  0.0000E+00  9.0000E+01  9.0000E+01  9.0000E+01  0.0000E+00 -1.4466E-01

  rolling -1.1931E+01  1.1221E+02 -1.4491E+01 -1.4491E+01  0.0000E+00  0.0000E+00  0.0000E+00  0.0000E+00  0.0000E+00
 averages -1.1017E+01  0.0000E+00  8.0698E+00  8.0698E+00  0.0000E+00  0.0000E+00  0.0000E+00  0.0000E+00  0.0000E+00
           1.3139E+04  0.0000E+00  0.0000E+00  0.0000E+00  9.0000E+01  9.0000E+01  9.0000E+01  0.0000E+00 -2.6691E-02
 ------------------------------------------------------------------------------------------------------------------------
     3100 -1.1931E+01  1.1477E+02 -1.4437E+01 -1.4437E+01  0.0000E+00  0.0000E+00  0.0000E+00  0.0000E+00  0.0000E+00
   3.100p -1.2386E+01  0.0000E+00  1.2765E+01  1.2765E+01  0.0000E+00  0.0000E+00  0.0000E+00  0.0000E+00  0.0000E+00
   1.196s  1.3347E+04  0.0000E+00  0.0000E+00  0.0000E+00  9.0000E+01  9.0000E+01  9.0000E+01  0.0000E+00 -2.0529E-01

  rolling -1.1930E+01  1.1659E+02 -1.4543E+01 -1.4543E+01  0.0000E+00  0.0000E+00  0.0000E+00  0.0000E+00  0.0000E+00
 averages -1.2522E+01  0.0000E+00  1.3149E+01  1.3149E+01  0.0000E+00  0.0000E+00  0.0000E+00  0.0000E+00  0.0000E+00
           1.3291E+04  0.0000E+00  0.0000E+00  0.0000E+00  9.0000E+01  9.0000E+01  9.0000E+01  0.0000E+00 -2.1661E-01
 ------------------------------------------------------------------------------------------------------------------------
 ------------------------------------------------------------------------------------------------------------------------

     step     eng_tot    temp_tot     eng_cfg     eng_vdw     eng_cou     eng_bnd     eng_ang     eng_dih     eng_tet
 time          eng_pv    temp_rot     vir_cfg     vir_vdw     vir_cou     vir_bnd     vir_ang     vir_con     vir_tet
 cpu time      volume    temp_shl     eng_shl     vir_shl       alpha        beta       gamma     vir_pmf       press

 ------------------------------------------------------------------------------------------------------------------------
     3200 -1.1931E+01  1.0716E+02 -1.4104E+01 -1.4104E+01  0.0000E+00  0.0000E+00  0.0000E+00  0.0000E+00  0.0000E+00
   3.200p -1.1256E+01  0.0000E+00  9.1152E+00  9.1152E+00  0.0000E+00  0.0000E+00  0.0000E+00  0.0000E+00  0.0000E+00
   1.229s  1.3417E+04  0.0000E+00  0.0000E+00  0.0000E+00  9.0000E+01  9.0000E+01  9.0000E+01  0.0000E+00 -8.0559E-02

  rolling -1.1930E+01  1.0936E+02 -1.4216E+01 -1.4216E+01  0.0000E+00  0.0000E+00  0.0000E+00  0.0000E+00  0.0000E+00
 averages -1.1591E+01  0.0000E+00  1.0150E+01  1.0150E+01  0.0000E+00  0.0000E+00  0.0000E+00  0.0000E+00  0.0000E+00
           1.3385E+04  0.0000E+00  0.0000E+00  0.0000E+00  9.0000E+01  9.0000E+01  9.0000E+01  0.0000E+00 -1.1583E-01
 ------------------------------------------------------------------------------------------------------------------------
     3300 -1.1929E+01  1.1198E+02 -1.4180E+01 -1.4180E+01  0.0000E+00  0.0000E+00  0.0000E+00  0.0000E+00  0.0000E+00
   3.300p -1.1918E+01  0.0000E+00  1.1667E+01  1.1667E+01  0.0000E+00  0.0000E+00  0.0000E+00  0.0000E+00  0.0000E+00
   1.264s  1.3454E+04  0.0000E+00  0.0000E+00  0.0000E+00  9.0000E+01  9.0000E+01  9.0000E+01  0.0000E+00 -1.6789E-01

  rolling -1.1929E+01  1.0987E+02 -1.4151E+01 -1.4151E+01  0.0000E+00  0.0000E+00  0.0000E+00  0.0000E+00  0.0000E+00
 averages -1.1636E+01  0.0000E+00  1.0562E+01  1.0562E+01  0.0000E+00  0.0000E+00  0.0000E+00  0.0000E+00  0.0000E+00
           1.3439E+04  0.0000E+00  0.0000E+00  0.0000E+00  9.0000E+01  9.0000E+01  9.0000E+01  0.0000E+00 -1.3015E-01
 ------------------------------------------------------------------------------------------------------------------------
     3400 -1.1927E+01  1.1280E+02 -1.4126E+01 -1.4126E+01  0.0000E+00  0.0000E+00  0.0000E+00  0.0000E+00  0.0000E+00
   3.400p -1.1686E+01  0.0000E+00  1.1271E+01  1.1271E+01  0.0000E+00  0.0000E+00  0.0000E+00  0.0000E+00  0.0000E+00
   1.300s  1.3441E+04  0.0000E+00  0.0000E+00  0.0000E+00  9.0000E+01  9.0000E+01  9.0000E+01  0.0000E+00 -1.5040E-01

  rolling -1.1930E+01  1.1192E+02 -1.4139E+01 -1.4139E+01  0.0000E+00  0.0000E+00  0.0000E+00  0.0000E+00  0.0000E+00
 averages -1.1789E+01  0.0000E+00  1.1395E+01  1.1395E+01  0.0000E+00  0.0000E+00  0.0000E+00  0.0000E+00  0.0000E+00
           1.3452E+04  0.0000E+00  0.0000E+00  0.0000E+00  9.0000E+01  9.0000E+01  9.0000E+01  0.0000E+00 -1.5739E-01
 ------------------------------------------------------------------------------------------------------------------------
     3500 -1.1929E+01  1.1314E+02 -1.4060E+01 -1.4060E+01  0.0000E+00  0.0000E+00  0.0000E+00  0.0000E+00  0.0000E+00
   3.500p -1.0776E+01  0.0000E+00  8.7954E+00  8.7954E+00  0.0000E+00  0.0000E+00  0.0000E+00  0.0000E+00  0.0000E+00
   1.333s  1.3380E+04  0.0000E+00  0.0000E+00  0.0000E+00  9.0000E+01  9.0000E+01  9.0000E+01  0.0000E+00 -5.2663E-02

  rolling -1.1929E+01  1.1383E+02 -1.4122E+01 -1.4122E+01  0.0000E+00  0.0000E+00  0.0000E+00  0.0000E+00  0.0000E+00
 averages -1.1399E+01  0.0000E+00  1.0591E+01  1.0591E+01  0.0000E+00  0.0000E+00  0.0000E+00  0.0000E+00  0.0000E+00
           1.3414E+04  0.0000E+00  0.0000E+00  0.0000E+00  9.0000E+01  9.0000E+01  9.0000E+01  0.0000E+00 -1.2127E-01
 ------------------------------------------------------------------------------------------------------------------------
     3600 -1.1930E+01  1.1361E+02 -1.3992E+01 -1.3992E+01  0.0000E+00  0.0000E+00  0.0000E+00  0.0000E+00  0.0000E+00
   3.600p -9.5112E+00  0.0000E+00  5.2823E+00  5.2823E+00  0.0000E+00  0.0000E+00  0.0000E+00  0.0000E+00  0.0000E+00
   1.367s  1.3305E+04  0.0000E+00  0.0000E+00  0.0000E+00  9.0000E+01  9.0000E+01  9.0000E+01  0.0000E+00  8.7445E-02

  rolling -1.1930E+01  1.1217E+02 -1.3987E+01 -1.3987E+01  0.0000E+00  0.0000E+00  0.0000E+00  0.0000E+00  0.0000E+00
 averages -9.9783E+00  0.0000E+00  6.4614E+00  6.4614E+00  0.0000E+00  0.0000E+00  0.0000E+00  0.0000E+00  0.0000E+00
           1.3341E+04  0.0000E+00  0.0000E+00  0.0000E+00  9.0000E+01  9.0000E+01  9.0000E+01  0.0000E+00  3.6939E-02
 ------------------------------------------------------------------------------------------------------------------------
     3700 -1.1928E+01  1.1801E+02 -1.4044E+01 -1.4044E+01  0.0000E+00  0.0000E+00  0.0000E+00  0.0000E+00  0.0000E+00
   3.700p -8.9999E+00  0.0000E+00  4.3172E+00  4.3172E+00  0.0000E+00  0.0000E+00  0.0000E+00  0.0000E+00  0.0000E+00
   1.401s  1.3255E+04  0.0000E+00  0.0000E+00  0.0000E+00  9.0000E+01  9.0000E+01  9.0000E+01  0.0000E+00  1.3767E-01

  rolling -1.1930E+01  1.1596E+02 -1.4024E+01 -1.4024E+01  0.0000E+00  0.0000E+00  0.0000E+00  0.0000E+00  0.0000E+00
 averages -9.2440E+00  0.0000E+00  4.7722E+00  4.7722E+00  0.0000E+00  0.0000E+00  0.0000E+00  0.0000E+00  0.0000E+00
           1.3277E+04  0.0000E+00  0.0000E+00  0.0000E+00  9.0000E+01  9.0000E+01  9.0000E+01  0.0000E+00  1.1404E-01
 ------------------------------------------------------------------------------------------------------------------------
     3800 -1.1925E+01  1.1639E+02 -1.3899E+01 -1.3899E+01  0.0000E+00  0.0000E+00  0.0000E+00  0.0000E+00  0.0000E+00
   3.800p -8.0880E+00  0.0000E+00  1.7490E+00  1.7490E+00  0.0000E+00  0.0000E+00  0.0000E+00  0.0000E+00  0.0000E+00
   1.436s  1.3251E+04  0.0000E+00  0.0000E+00  0.0000E+00  9.0000E+01  9.0000E+01  9.0000E+01  0.0000E+00  2.3564E-01

  rolling -1.1926E+01  1.1767E+02 -1.3986E+01 -1.3986E+01  0.0000E+00  0.0000E+00  0.0000E+00  0.0000E+00  0.0000E+00
 averages -8.5603E+00  0.0000E+00  3.1181E+00  3.1181E+00  0.0000E+00  0.0000E+00  0.0000E+00  0.0000E+00  0.0000E+00
           1.3248E+04  0.0000E+00  0.0000E+00  0.0000E+00  9.0000E+01  9.0000E+01  9.0000E+01  0.0000E+00  1.8458E-01
 ------------------------------------------------------------------------------------------------------------------------
     3900 -1.1924E+01  1.1799E+02 -1.3871E+01 -1.3871E+01  0.0000E+00  0.0000E+00  0.0000E+00  0.0000E+00  0.0000E+00
   3.900p -8.1716E+00  0.0000E+00  2.3463E+00  2.3463E+00  0.0000E+00  0.0000E+00  0.0000E+00  0.0000E+00  0.0000E+00
   1.474s  1.3317E+04  0.0000E+00  0.0000E+00  0.0000E+00  9.0000E+01  9.0000E+01  9.0000E+01  0.0000E+00  2.1498E-01

  rolling -1.1923E+01  1.1726E+02 -1.3885E+01 -1.3885E+01  0.0000E+00  0.0000E+00  0.0000E+00  0.0000E+00  0.0000E+00
 averages -8.0874E+00  0.0000E+00  1.9343E+00  1.9343E+00  0.0000E+00  0.0000E+00  0.0000E+00  0.0000E+00  0.0000E+00
           1.3278E+04  0.0000E+00  0.0000E+00  0.0000E+00  9.0000E+01  9.0000E+01  9.0000E+01  0.0000E+00  2.3009E-01
 ------------------------------------------------------------------------------------------------------------------------
 ------------------------------------------------------------------------------------------------------------------------

     step     eng_tot    temp_tot     eng_cfg     eng_vdw     eng_cou     eng_bnd     eng_ang     eng_dih     eng_tet
 time          eng_pv    temp_rot     vir_cfg     vir_vdw     vir_cou     vir_bnd     vir_ang     vir_con     vir_tet
 cpu time      volume    temp_shl     eng_shl     vir_shl       alpha        beta       gamma     vir_pmf       press

 ------------------------------------------------------------------------------------------------------------------------
     4000 -1.1925E+01  1.1795E+02 -1.3798E+01 -1.3798E+01  0.0000E+00  0.0000E+00  0.0000E+00  0.0000E+00  0.0000E+00
   4.000p -8.6166E+00  0.0000E+00  3.8940E+00  3.8940E+00  0.0000E+00  0.0000E+00  0.0000E+00  0.0000E+00  0.0000E+00
   1.509s  1.3454E+04  0.0000E+00  0.0000E+00  0.0000E+00  9.0000E+01  9.0000E+01  9.0000E+01  0.0000E+00  1.5206E-01

  rolling -1.1924E+01  1.1744E+02 -1.3816E+01 -1.3816E+01  0.0000E+00  0.0000E+00  0.0000E+00  0.0000E+00  0.0000E+00
 averages -8.2744E+00  0.0000E+00  2.7316E+00  2.7316E+00  0.0000E+00  0.0000E+00  0.0000E+00  0.0000E+00  0.0000E+00
           1.3381E+04  0.0000E+00  0.0000E+00  0.0000E+00  9.0000E+01  9.0000E+01  9.0000E+01  0.0000E+00  1.9743E-01
 ------------------------------------------------------------------------------------------------------------------------
     4100 -1.1930E+01  1.1766E+02 -1.3714E+01 -1.3714E+01  0.0000E+00  0.0000E+00  0.0000E+00  0.0000E+00  0.0000E+00
   4.100p -9.4344E+00  0.0000E+00  6.5524E+00  6.5524E+00  0.0000E+00  0.0000E+00  0.0000E+00  0.0000E+00  0.0000E+00
   1.549s  1.3643E+04  0.0000E+00  0.0000E+00  0.0000E+00  9.0000E+01  9.0000E+01  9.0000E+01  0.0000E+00  4.6532E-02

  rolling -1.1928E+01  1.1835E+02 -1.3775E+01 -1.3775E+01  0.0000E+00  0.0000E+00  0.0000E+00  0.0000E+00  0.0000E+00
 averages -9.0872E+00  0.0000E+00  5.4425E+00  5.4425E+00  0.0000E+00  0.0000E+00  0.0000E+00  0.0000E+00  0.0000E+00
           1.3547E+04  0.0000E+00  0.0000E+00  0.0000E+00  9.0000E+01  9.0000E+01  9.0000E+01  0.0000E+00  9.1934E-02
 ------------------------------------------------------------------------------------------------------------------------
     4200 -1.1935E+01  1.1323E+02 -1.3488E+01 -1.3488E+01  0.0000E+00  0.0000E+00  0.0000E+00  0.0000E+00  0.0000E+00
   4.200p -9.8633E+00  0.0000E+00  7.7869E+00  7.7869E+00  0.0000E+00  0.0000E+00  0.0000E+00  0.0000E+00  0.0000E+00
   1.583s  1.3855E+04  0.0000E+00  0.0000E+00  0.0000E+00  9.0000E+01  9.0000E+01  9.0000E+01  0.0000E+00 -1.2269E-02

  rolling -1.1931E+01  1.1507E+02 -1.3588E+01 -1.3588E+01  0.0000E+00  0.0000E+00  0.0000E+00  0.0000E+00  0.0000E+00
 averages -9.5879E+00  0.0000E+00  6.9652E+00  6.9652E+00  0.0000E+00  0.0000E+00  0.0000E+00  0.0000E+00  0.0000E+00
           1.3749E+04  0.0000E+00  0.0000E+00  0.0000E+00  9.0000E+01  9.0000E+01  9.0000E+01  0.0000E+00  2.3857E-02
 ------------------------------------------------------------------------------------------------------------------------
     4300 -1.1936E+01  1.1763E+02 -1.3531E+01 -1.3531E+01  0.0000E+00  0.0000E+00  0.0000E+00  0.0000E+00  0.0000E+00
   4.300p -1.1300E+01  0.0000E+00  1.2693E+01  1.2693E+01  0.0000E+00  0.0000E+00  0.0000E+00  0.0000E+00  0.0000E+00
   1.617s  1.4062E+04  0.0000E+00  0.0000E+00  0.0000E+00  9.0000E+01  9.0000E+01  9.0000E+01  0.0000E+00 -1.8510E-01

  rolling -1.1935E+01  1.1556E+02 -1.3515E+01 -1.3515E+01  0.0000E+00  0.0000E+00  0.0000E+00  0.0000E+00  0.0000E+00
 averages -1.0649E+01  0.0000E+00  1.0446E+01  1.0446E+01  0.0000E+00  0.0000E+00  0.0000E+00  0.0000E+00  0.0000E+00
           1.3962E+04  0.0000E+00  0.0000E+00  0.0000E+00  9.0000E+01  9.0000E+01  9.0000E+01  0.0000E+00 -1.0655E-01
 ------------------------------------------------------------------------------------------------------------------------
     4400 -1.1937E+01  1.1624E+02 -1.3378E+01 -1.3378E+01  0.0000E+00  0.0000E+00  0.0000E+00  0.0000E+00  0.0000E+00
   4.400p -1.1294E+01  0.0000E+00  1.2905E+01  1.2905E+01  0.0000E+00  0.0000E+00  0.0000E+00  0.0000E+00  0.0000E+00
   1.650s  1.4214E+04  0.0000E+00  0.0000E+00  0.0000E+00  9.0000E+01  9.0000E+01  9.0000E+01  0.0000E+00 -1.9436E-01

  rolling -1.1937E+01  1.1684E+02 -1.3451E+01 -1.3451E+01  0.0000E+00  0.0000E+00  0.0000E+00  0.0000E+00  0.0000E+00
 averages -1.1341E+01  0.0000E+00  1.2926E+01  1.2926E+01  0.0000E+00  0.0000E+00  0.0000E+00  0.0000E+00  0.0000E+00
           1.4144E+04  0.0000E+00  0.0000E+00  0.0000E+00  9.0000E+01  9.0000E+01  9.0000E+01  0.0000E+00 -1.9464E-01
 ------------------------------------------------------------------------------------------------------------------------
     4500 -1.1932E+01  1.1631E+02 -1.3276E+01 -1.3276E+01  0.0000E+00  0.0000E+00  0.0000E+00  0.0000E+00  0.0000E+00
   4.500p -1.1028E+01  0.0000E+00  1.2425E+01  1.2425E+01  0.0000E+00  0.0000E+00  0.0000E+00  0.0000E+00  0.0000E+00
   1.685s  1.4300E+04  0.0000E+00  0.0000E+00  0.0000E+00  9.0000E+01  9.0000E+01  9.0000E+01  0.0000E+00 -1.7535E-01

  rolling -1.1934E+01  1.1561E+02 -1.3303E+01 -1.3303E+01  0.0000E+00  0.0000E+00  0.0000E+00  0.0000E+00  0.0000E+00
 averages -1.1094E+01  0.0000E+00  1.2425E+01  1.2425E+01  0.0000E+00  0.0000E+00  0.0000E+00  0.0000E+00  0.0000E+00
           1.4263E+04  0.0000E+00  0.0000E+00  0.0000E+00  9.0000E+01  9.0000E+01  9.0000E+01  0.0000E+00 -1.7752E-01
 ------------------------------------------------------------------------------------------------------------------------
     4600 -1.1930E+01  1.1459E+02 -1.3123E+01 -1.3123E+01  0.0000E+00  0.0000E+00  0.0000E+00  0.0000E+00  0.0000E+00
   4.600p -1.0273E+01  0.0000E+00  1.0335E+01  1.0335E+01  0.0000E+00  0.0000E+00  0.0000E+00  0.0000E+00  0.0000E+00
   1.720s  1.4326E+04  0.0000E+00  0.0000E+00  0.0000E+00  9.0000E+01  9.0000E+01  9.0000E+01  0.0000E+00 -1.0231E-01

  rolling -1.1931E+01  1.1582E+02 -1.3210E+01 -1.3210E+01  0.0000E+00  0.0000E+00  0.0000E+00  0.0000E+00  0.0000E+00
 averages -1.0716E+01  0.0000E+00  1.1605E+01  1.1605E+01  0.0000E+00  0.0000E+00  0.0000E+00  0.0000E+00  0.0000E+00
           1.4318E+04  0.0000E+00  0.0000E+00  0.0000E+00  9.0000E+01  9.0000E+01  9.0000E+01  0.0000E+00 -1.4615E-01
 ------------------------------------------------------------------------------------------------------------------------
     4700 -1.1930E+01  1.1699E+02 -1.3111E+01 -1.3111E+01  0.0000E+00  0.0000E+00  0.0000E+00  0.0000E+00  0.0000E+00
   4.700p -9.8550E+00  0.0000E+00  9.5121E+00  9.5121E+00  0.0000E+00  0.0000E+00  0.0000E+00  0.0000E+00  0.0000E+00
   1.756s  1.4311E+04  0.0000E+00  0.0000E+00  0.0000E+00  9.0000E+01  9.0000E+01  9.0000E+01  0.0000E+00 -6.6281E-02

  rolling -1.1929E+01  1.1553E+02 -1.3108E+01 -1.3108E+01  0.0000E+00  0.0000E+00  0.0000E+00  0.0000E+00  0.0000E+00
 averages -1.0044E+01  0.0000E+00  9.8502E+00  9.8502E+00  0.0000E+00  0.0000E+00  0.0000E+00  0.0000E+00  0.0000E+00
           1.4321E+04  0.0000E+00  0.0000E+00  0.0000E+00  9.0000E+01  9.0000E+01  9.0000E+01  0.0000E+00 -8.2219E-02
 ------------------------------------------------------------------------------------------------------------------------
 ------------------------------------------------------------------------------------------------------------------------

     step     eng_tot    temp_tot     eng_cfg     eng_vdw     eng_cou     eng_bnd     eng_ang     eng_dih     eng_tet
 time          eng_pv    temp_rot     vir_cfg     vir_vdw     vir_cou     vir_bnd     vir_ang     vir_con     vir_tet
 cpu time      volume    temp_shl     eng_shl     vir_shl       alpha        beta       gamma     vir_pmf       press

 ------------------------------------------------------------------------------------------------------------------------
     4800 -1.1932E+01  1.1884E+02 -1.3081E+01 -1.3081E+01  0.0000E+00  0.0000E+00  0.0000E+00  0.0000E+00  0.0000E+00
   4.800p -9.0496E+00  0.0000E+00  7.4907E+00  7.4907E+00  0.0000E+00  0.0000E+00  0.0000E+00  0.0000E+00  0.0000E+00
   1.788s  1.4275E+04  0.0000E+00  0.0000E+00  0.0000E+00  9.0000E+01  9.0000E+01  9.0000E+01  0.0000E+00  1.2696E-02

  rolling -1.1929E+01  1.1770E+02 -1.3088E+01 -1.3088E+01  0.0000E+00  0.0000E+00  0.0000E+00  0.0000E+00  0.0000E+00
 averages -9.4418E+00  0.0000E+00  8.4595E+00  8.4595E+00  0.0000E+00  0.0000E+00  0.0000E+00  0.0000E+00  0.0000E+00
           1.4294E+04  0.0000E+00  0.0000E+00  0.0000E+00  9.0000E+01  9.0000E+01  9.0000E+01  0.0000E+00 -2.5816E-02
 ------------------------------------------------------------------------------------------------------------------------
     4900 -1.1935E+01  1.2241E+02 -1.3106E+01 -1.3106E+01  0.0000E+00  0.0000E+00  0.0000E+00  0.0000E+00  0.0000E+00
   4.900p -8.5544E+00  0.0000E+00  6.5209E+00  6.5209E+00  0.0000E+00  0.0000E+00  0.0000E+00  0.0000E+00  0.0000E+00
   1.821s  1.4243E+04  0.0000E+00  0.0000E+00  0.0000E+00  9.0000E+01  9.0000E+01  9.0000E+01  0.0000E+00  5.7318E-02

  rolling -1.1934E+01  1.2040E+02 -1.3087E+01 -1.3087E+01  0.0000E+00  0.0000E+00  0.0000E+00  0.0000E+00  0.0000E+00
 averages -8.7284E+00  0.0000E+00  6.7687E+00  6.7687E+00  0.0000E+00  0.0000E+00  0.0000E+00  0.0000E+00  0.0000E+00
           1.4257E+04  0.0000E+00  0.0000E+00  0.0000E+00  9.0000E+01  9.0000E+01  9.0000E+01  0.0000E+00  4.3216E-02
 ------------------------------------------------------------------------------------------------------------------------
     5000 -1.1932E+01  1.2845E+02 -1.3202E+01 -1.3202E+01  0.0000E+00  0.0000E+00  0.0000E+00  0.0000E+00  0.0000E+00
   5.000p -8.7618E+00  0.0000E+00  7.8498E+00  7.8498E+00  0.0000E+00  0.0000E+00  0.0000E+00  0.0000E+00  0.0000E+00
   1.853s  1.4228E+04  0.0000E+00  0.0000E+00  0.0000E+00  9.0000E+01  9.0000E+01  9.0000E+01  0.0000E+00  2.2902E-02

  rolling -1.1934E+01  1.2557E+02 -1.3159E+01 -1.3159E+01  0.0000E+00  0.0000E+00  0.0000E+00  0.0000E+00  0.0000E+00
 averages -8.6700E+00  0.0000E+00  7.2277E+00  7.2277E+00  0.0000E+00  0.0000E+00  0.0000E+00  0.0000E+00  0.0000E+00
           1.4234E+04  0.0000E+00  0.0000E+00  0.0000E+00  9.0000E+01  9.0000E+01  9.0000E+01  0.0000E+00  3.8876E-02
 ------------------------------------------------------------------------------------------------------------------------
     5100 -1.1933E+01  1.2269E+02 -1.2914E+01 -1.2914E+01  0.0000E+00  0.0000E+00  0.0000E+00  0.0000E+00  0.0000E+00
   5.100p -7.1182E+00  0.0000E+00  2.8332E+00  2.8332E+00  0.0000E+00  0.0000E+00  0.0000E+00  0.0000E+00  0.0000E+00
   1.891s  1.4228E+04  0.0000E+00  0.0000E+00  0.0000E+00  9.0000E+01  9.0000E+01  9.0000E+01  0.0000E+00  1.9466E-01

  rolling -1.1932E+01  1.2732E+02 -1.3114E+01 -1.3114E+01  0.0000E+00  0.0000E+00  0.0000E+00  0.0000E+00  0.0000E+00
 averages -8.1894E+00  0.0000E+00  6.2091E+00  6.2091E+00  0.0000E+00  0.0000E+00  0.0000E+00  0.0000E+00  0.0000E+00
           1.4225E+04  0.0000E+00  0.0000E+00  0.0000E+00  9.0000E+01  9.0000E+01  9.0000E+01  0.0000E+00  8.0933E-02
 ------------------------------------------------------------------------------------------------------------------------
     5200 -1.1937E+01  1.2813E+02 -1.3009E+01 -1.3009E+01  0.0000E+00  0.0000E+00  0.0000E+00  0.0000E+00  0.0000E+00
   5.200p -7.4883E+00  0.0000E+00  4.5552E+00  4.5552E+00  0.0000E+00  0.0000E+00  0.0000E+00  0.0000E+00  0.0000E+00
   1.924s  1.4289E+04  0.0000E+00  0.0000E+00  0.0000E+00  9.0000E+01  9.0000E+01  9.0000E+01  0.0000E+00  1.4354E-01

  rolling -1.1935E+01  1.2338E+02 -1.2894E+01 -1.2894E+01  0.0000E+00  0.0000E+00  0.0000E+00  0.0000E+00  0.0000E+00
 averages -6.9440E+00  0.0000E+00  2.4839E+00  2.4839E+00  0.0000E+00  0.0000E+00  0.0000E+00  0.0000E+00  0.0000E+00
           1.4252E+04  0.0000E+00  0.0000E+00  0.0000E+00  9.0000E+01  9.0000E+01  9.0000E+01  0.0000E+00  2.0896E-01
 ------------------------------------------------------------------------------------------------------------------------
     5300 -1.1932E+01  1.2696E+02 -1.2875E+01 -1.2875E+01  0.0000E+00  0.0000E+00  0.0000E+00  0.0000E+00  0.0000E+00
   5.300p -7.6279E+00  0.0000E+00  5.1819E+00  5.1819E+00  0.0000E+00  0.0000E+00  0.0000E+00  0.0000E+00  0.0000E+00
   1.958s  1.4409E+04  0.0000E+00  0.0000E+00  0.0000E+00  9.0000E+01  9.0000E+01  9.0000E+01  0.0000E+00  1.1660E-01

  rolling -1.1933E+01  1.2913E+02 -1.2992E+01 -1.2992E+01  0.0000E+00  0.0000E+00  0.0000E+00  0.0000E+00  0.0000E+00
 averages -7.7287E+00  0.0000E+00  5.4911E+00  5.4911E+00  0.0000E+00  0.0000E+00  0.0000E+00  0.0000E+00  0.0000E+00
           1.4346E+04  0.0000E+00  0.0000E+00  0.0000E+00  9.0000E+01  9.0000E+01  9.0000E+01  0.0000E+00  1.1101E-01
 ------------------------------------------------------------------------------------------------------------------------
     5400 -1.1931E+01  1.3128E+02 -1.2922E+01 -1.2922E+01  0.0000E+00  0.0000E+00  0.0000E+00  0.0000E+00  0.0000E+00
   5.400p -8.8952E+00  0.0000E+00  9.5541E+00  9.5541E+00  0.0000E+00  0.0000E+00  0.0000E+00  0.0000E+00  0.0000E+00
   1.994s  1.4564E+04  0.0000E+00  0.0000E+00  0.0000E+00  9.0000E+01  9.0000E+01  9.0000E+01  0.0000E+00 -3.2574E-02

  rolling -1.1932E+01  1.2963E+02 -1.2917E+01 -1.2917E+01  0.0000E+00  0.0000E+00  0.0000E+00  0.0000E+00  0.0000E+00
 averages -8.3260E+00  0.0000E+00  7.5913E+00  7.5913E+00  0.0000E+00  0.0000E+00  0.0000E+00  0.0000E+00  0.0000E+00
           1.4486E+04  0.0000E+00  0.0000E+00  0.0000E+00  9.0000E+01  9.0000E+01  9.0000E+01  0.0000E+00  3.4886E-02
 ------------------------------------------------------------------------------------------------------------------------
     5500 -1.1930E+01  1.2947E+02 -1.2764E+01 -1.2764E+01  0.0000E+00  0.0000E+00  0.0000E+00  0.0000E+00  0.0000E+00
   5.500p -9.2568E+00  0.0000E+00  1.0816E+01  1.0816E+01  0.0000E+00  0.0000E+00  0.0000E+00  0.0000E+00  0.0000E+00
   2.027s  1.4719E+04  0.0000E+00  0.0000E+00  0.0000E+00  9.0000E+01  9.0000E+01  9.0000E+01  0.0000E+00 -8.1678E-02

  rolling -1.1932E+01  1.2814E+02 -1.2771E+01 -1.2771E+01  0.0000E+00  0.0000E+00  0.0000E+00  0.0000E+00  0.0000E+00
 averages -8.8066E+00  0.0000E+00  9.2258E+00  9.2258E+00  0.0000E+00  0.0000E+00  0.0000E+00  0.0000E+00  0.0000E+00
           1.4643E+04  0.0000E+00  0.0000E+00  0.0000E+00  9.0000E+01  9.0000E+01  9.0000E+01  0.0000E+00 -2.7978E-02
 ------------------------------------------------------------------------------------------------------------------------
 ------------------------------------------------------------------------------------------------------------------------

     step     eng_tot    temp_tot     eng_cfg     eng_vdw     eng_cou     eng_bnd     eng_ang     eng_dih     eng_tet
 time          eng_pv    temp_rot     vir_cfg     vir_vdw     vir_cou     vir_bnd     vir_ang     vir_con     vir_tet
 cpu time      volume    temp_shl     eng_shl     vir_shl       alpha        beta       gamma     vir_pmf       press

 ------------------------------------------------------------------------------------------------------------------------
     5600 -1.1929E+01  1.2700E+02 -1.2579E+01 -1.2579E+01  0.0000E+00  0.0000E+00  0.0000E+00  0.0000E+00  0.0000E+00
   5.600p -9.1590E+00  0.0000E+00  1.0671E+01  1.0671E+01  0.0000E+00  0.0000E+00  0.0000E+00  0.0000E+00  0.0000E+00
   2.060s  1.4850E+04  0.0000E+00  0.0000E+00  0.0000E+00  9.0000E+01  9.0000E+01  9.0000E+01  0.0000E+00 -8.1564E-02

  rolling -1.1930E+01  1.2943E+02 -1.2710E+01 -1.2710E+01  0.0000E+00  0.0000E+00  0.0000E+00  0.0000E+00  0.0000E+00
 averages -9.4046E+00  0.0000E+00  1.1414E+01  1.1414E+01  0.0000E+00  0.0000E+00  0.0000E+00  0.0000E+00  0.0000E+00
           1.4789E+04  0.0000E+00  0.0000E+00  0.0000E+00  9.0000E+01  9.0000E+01  9.0000E+01  0.0000E+00 -1.0273E-01
 ------------------------------------------------------------------------------------------------------------------------
     5700 -1.1926E+01  1.3232E+02 -1.2653E+01 -1.2653E+01  0.0000E+00  0.0000E+00  0.0000E+00  0.0000E+00  0.0000E+00
   5.700p -9.6513E+00  0.0000E+00  1.2803E+01  1.2803E+01  0.0000E+00  0.0000E+00  0.0000E+00  0.0000E+00  0.0000E+00
   2.092s  1.4942E+04  0.0000E+00  0.0000E+00  0.0000E+00  9.0000E+01  9.0000E+01  9.0000E+01  0.0000E+00 -1.4392E-01

  rolling -1.1927E+01  1.2970E+02 -1.2616E+01 -1.2616E+01  0.0000E+00  0.0000E+00  0.0000E+00  0.0000E+00  0.0000E+00
 averages -9.4509E+00  0.0000E+00  1.1878E+01  1.1878E+01  0.0000E+00  0.0000E+00  0.0000E+00  0.0000E+00  0.0000E+00
           1.4900E+04  0.0000E+00  0.0000E+00  0.0000E+00  9.0000E+01  9.0000E+01  9.0000E+01  0.0000E+00 -1.1769E-01
 ------------------------------------------------------------------------------------------------------------------------
     5800 -1.1927E+01  1.2519E+02 -1.2325E+01 -1.2325E+01  0.0000E+00  0.0000E+00  0.0000E+00  0.0000E+00  0.0000E+00
   5.800p -7.9689E+00  0.0000E+00  7.5647E+00  7.5647E+00  0.0000E+00  0.0000E+00  0.0000E+00  0.0000E+00  0.0000E+00
   2.125s  1.4988E+04  0.0000E+00  0.0000E+00  0.0000E+00  9.0000E+01  9.0000E+01  9.0000E+01  0.0000E+00  2.4213E-02

  rolling -1.1926E+01  1.2979E+02 -1.2520E+01 -1.2520E+01  0.0000E+00  0.0000E+00  0.0000E+00  0.0000E+00  0.0000E+00
 averages -8.9641E+00  0.0000E+00  1.0721E+01  1.0721E+01  0.0000E+00  0.0000E+00  0.0000E+00  0.0000E+00  0.0000E+00
           1.4968E+04  0.0000E+00  0.0000E+00  0.0000E+00  9.0000E+01  9.0000E+01  9.0000E+01  0.0000E+00 -7.6286E-02
 ------------------------------------------------------------------------------------------------------------------------
     5900 -1.1927E+01  1.2310E+02 -1.2174E+01 -1.2174E+01  0.0000E+00  0.0000E+00  0.0000E+00  0.0000E+00  0.0000E+00
   5.900p -7.2112E+00  0.0000E+00  5.3997E+00  5.3997E+00  0.0000E+00  0.0000E+00  0.0000E+00  0.0000E+00  0.0000E+00
   2.158s  1.5039E+04  0.0000E+00  0.0000E+00  0.0000E+00  9.0000E+01  9.0000E+01  9.0000E+01  0.0000E+00  9.5169E-02

  rolling -1.1927E+01  1.2323E+02 -1.2219E+01 -1.2219E+01  0.0000E+00  0.0000E+00  0.0000E+00  0.0000E+00  0.0000E+00
 averages -7.4132E+00  0.0000E+00  5.8929E+00  5.8929E+00  0.0000E+00  0.0000E+00  0.0000E+00  0.0000E+00  0.0000E+00
           1.5011E+04  0.0000E+00  0.0000E+00  0.0000E+00  9.0000E+01  9.0000E+01  9.0000E+01  0.0000E+00  7.8321E-02
 ------------------------------------------------------------------------------------------------------------------------
     6000 -1.1926E+01  1.2294E+02 -1.2091E+01 -1.2091E+01  0.0000E+00  0.0000E+00  0.0000E+00  0.0000E+00  0.0000E+00
   6.000p -7.3499E+00  0.0000E+00  6.0391E+00  6.0391E+00  0.0000E+00  0.0000E+00  0.0000E+00  0.0000E+00  0.0000E+00
   2.191s  1.5132E+04  0.0000E+00  0.0000E+00  0.0000E+00  9.0000E+01  9.0000E+01  9.0000E+01  0.0000E+00  7.1949E-02

  rolling -1.1926E+01  1.2125E+02 -1.2073E+01 -1.2073E+01  0.0000E+00  0.0000E+00  0.0000E+00  0.0000E+00  0.0000E+00
 averages -7.0055E+00  0.0000E+00  4.7813E+00  4.7813E+00  0.0000E+00  0.0000E+00  0.0000E+00  0.0000E+00  0.0000E+00
           1.5082E+04  0.0000E+00  0.0000E+00  0.0000E+00  9.0000E+01  9.0000E+01  9.0000E+01  0.0000E+00  1.1225E-01
 ------------------------------------------------------------------------------------------------------------------------
     6100 -1.1922E+01  1.2505E+02 -1.2071E+01 -1.2071E+01  0.0000E+00  0.0000E+00  0.0000E+00  0.0000E+00  0.0000E+00
   6.100p -7.7603E+00  0.0000E+00  7.6764E+00  7.6764E+00  0.0000E+00  0.0000E+00  0.0000E+00  0.0000E+00  0.0000E+00
   2.230s  1.5254E+04  0.0000E+00  0.0000E+00  0.0000E+00  9.0000E+01  9.0000E+01  9.0000E+01  0.0000E+00  1.9600E-02

  rolling -1.1924E+01  1.2651E+02 -1.2164E+01 -1.2164E+01  0.0000E+00  0.0000E+00  0.0000E+00  0.0000E+00  0.0000E+00
 averages -7.9161E+00  0.0000E+00  8.1067E+00  8.1067E+00  0.0000E+00  0.0000E+00  0.0000E+00  0.0000E+00  0.0000E+00
           1.5194E+04  0.0000E+00  0.0000E+00  0.0000E+00  9.0000E+01  9.0000E+01  9.0000E+01  0.0000E+00  8.1248E-03
 ------------------------------------------------------------------------------------------------------------------------
     6200 -1.1922E+01  1.2714E+02 -1.2057E+01 -1.2057E+01  0.0000E+00  0.0000E+00  0.0000E+00  0.0000E+00  0.0000E+00
   6.200p -8.1138E+00  0.0000E+00  9.1230E+00  9.1230E+00  0.0000E+00  0.0000E+00  0.0000E+00  0.0000E+00  0.0000E+00
   2.264s  1.5383E+04  0.0000E+00  0.0000E+00  0.0000E+00  9.0000E+01  9.0000E+01  9.0000E+01  0.0000E+00 -2.5412E-02

  rolling -1.1922E+01  1.2487E+02 -1.2023E+01 -1.2023E+01  0.0000E+00  0.0000E+00  0.0000E+00  0.0000E+00  0.0000E+00
 averages -7.7665E+00  0.0000E+00  7.8081E+00  7.8081E+00  0.0000E+00  0.0000E+00  0.0000E+00  0.0000E+00  0.0000E+00
           1.5318E+04  0.0000E+00  0.0000E+00  0.0000E+00  9.0000E+01  9.0000E+01  9.0000E+01  0.0000E+00  1.4609E-02
 ------------------------------------------------------------------------------------------------------------------------
     6300 -1.1924E+01  1.2270E+02 -1.1829E+01 -1.1829E+01  0.0000E+00  0.0000E+00  0.0000E+00  0.0000E+00  0.0000E+00
   6.300p -7.5446E+00  0.0000E+00  7.3698E+00  7.3698E+00  0.0000E+00  0.0000E+00  0.0000E+00  0.0000E+00  0.0000E+00
   2.296s  1.5510E+04  0.0000E+00  0.0000E+00  0.0000E+00  9.0000E+01  9.0000E+01  9.0000E+01  0.0000E+00  2.4433E-02

  rolling -1.1924E+01  1.2576E+02 -1.1969E+01 -1.1969E+01  0.0000E+00  0.0000E+00  0.0000E+00  0.0000E+00  0.0000E+00
 averages -7.9401E+00  0.0000E+00  8.6375E+00  8.6375E+00  0.0000E+00  0.0000E+00  0.0000E+00  0.0000E+00  0.0000E+00
           1.5447E+04  0.0000E+00  0.0000E+00  0.0000E+00  9.0000E+01  9.0000E+01  9.0000E+01  0.0000E+00 -1.1892E-02
 ------------------------------------------------------------------------------------------------------------------------
 ------------------------------------------------------------------------------------------------------------------------

     step     eng_tot    temp_tot     eng_cfg     eng_vdw     eng_cou     eng_bnd     eng_ang     eng_dih     eng_tet
 time          eng_pv    temp_rot     vir_cfg     vir_vdw     vir_cou     vir_bnd     vir_ang     vir_con     vir_tet
 cpu time      volume    temp_shl     eng_shl     vir_shl       alpha        beta       gamma     vir_pmf       press

 ------------------------------------------------------------------------------------------------------------------------
     6400 -1.1923E+01  1.2740E+02 -1.1898E+01 -1.1898E+01  0.0000E+00  0.0000E+00  0.0000E+00  0.0000E+00  0.0000E+00
   6.400p -8.4552E+00  0.0000E+00  1.0667E+01  1.0667E+01  0.0000E+00  0.0000E+00  0.0000E+00  0.0000E+00  0.0000E+00
   2.328s  1.5640E+04  0.0000E+00  0.0000E+00  0.0000E+00  9.0000E+01  9.0000E+01  9.0000E+01  0.0000E+00 -7.6445E-02

  rolling -1.1926E+01  1.2484E+02 -1.1859E+01 -1.1859E+01  0.0000E+00  0.0000E+00  0.0000E+00  0.0000E+00  0.0000E+00
 averages -7.9467E+00  0.0000E+00  8.8372E+00  8.8372E+00  0.0000E+00  0.0000E+00  0.0000E+00  0.0000E+00  0.0000E+00
           1.5576E+04  0.0000E+00  0.0000E+00  0.0000E+00  9.0000E+01  9.0000E+01  9.0000E+01  0.0000E+00 -2.0463E-02
 ------------------------------------------------------------------------------------------------------------------------
     6500 -1.1927E+01  1.3247E+02 -1.1977E+01 -1.1977E+01  0.0000E+00  0.0000E+00  0.0000E+00  0.0000E+00  0.0000E+00
   6.500p -9.5026E+00  0.0000E+00  1.4408E+01  1.4408E+01  0.0000E+00  0.0000E+00  0.0000E+00  0.0000E+00  0.0000E+00
   2.360s  1.5736E+04  0.0000E+00  0.0000E+00  0.0000E+00  9.0000E+01  9.0000E+01  9.0000E+01  0.0000E+00 -1.9008E-01

  rolling -1.1926E+01  1.2999E+02 -1.1940E+01 -1.1940E+01  0.0000E+00  0.0000E+00  0.0000E+00  0.0000E+00  0.0000E+00
 averages -9.0211E+00  0.0000E+00  1.2666E+01  1.2666E+01  0.0000E+00  0.0000E+00  0.0000E+00  0.0000E+00  0.0000E+00
           1.5693E+04  0.0000E+00  0.0000E+00  0.0000E+00  9.0000E+01  9.0000E+01  9.0000E+01  0.0000E+00 -1.3752E-01
 ------------------------------------------------------------------------------------------------------------------------
     6600 -1.1928E+01  1.3026E+02 -1.1820E+01 -1.1820E+01  0.0000E+00  0.0000E+00  0.0000E+00  0.0000E+00  0.0000E+00
   6.600p -8.8998E+00  0.0000E+00  1.2706E+01  1.2706E+01  0.0000E+00  0.0000E+00  0.0000E+00  0.0000E+00  0.0000E+00
   2.393s  1.5757E+04  0.0000E+00  0.0000E+00  0.0000E+00  9.0000E+01  9.0000E+01  9.0000E+01  0.0000E+00 -1.3777E-01

  rolling -1.1927E+01  1.3150E+02 -1.1902E+01 -1.1902E+01  0.0000E+00  0.0000E+00  0.0000E+00  0.0000E+00  0.0000E+00
 averages -9.2792E+00  0.0000E+00  1.3805E+01  1.3805E+01  0.0000E+00  0.0000E+00  0.0000E+00  0.0000E+00  0.0000E+00
           1.5753E+04  0.0000E+00  0.0000E+00  0.0000E+00  9.0000E+01  9.0000E+01  9.0000E+01  0.0000E+00 -1.7186E-01
 ------------------------------------------------------------------------------------------------------------------------
     6700 -1.1923E+01  1.3112E+02 -1.1766E+01 -1.1766E+01  0.0000E+00  0.0000E+00  0.0000E+00  0.0000E+00  0.0000E+00
   6.700p -8.1649E+00  0.0000E+00  1.0807E+01  1.0807E+01  0.0000E+00  0.0000E+00  0.0000E+00  0.0000E+00  0.0000E+00
   2.425s  1.5717E+04  0.0000E+00  0.0000E+00  0.0000E+00  9.0000E+01  9.0000E+01  9.0000E+01  0.0000E+00 -7.2541E-02

  rolling -1.1927E+01  1.3049E+02 -1.1787E+01 -1.1787E+01  0.0000E+00  0.0000E+00  0.0000E+00  0.0000E+00  0.0000E+00
 averages -8.5343E+00  0.0000E+00  1.1747E+01  1.1747E+01  0.0000E+00  0.0000E+00  0.0000E+00  0.0000E+00  0.0000E+00
           1.5741E+04  0.0000E+00  0.0000E+00  0.0000E+00  9.0000E+01  9.0000E+01  9.0000E+01  0.0000E+00 -1.0530E-01
 ------------------------------------------------------------------------------------------------------------------------
     6800 -1.1924E+01  1.3401E+02 -1.1784E+01 -1.1784E+01  0.0000E+00  0.0000E+00  0.0000E+00  0.0000E+00  0.0000E+00
   6.800p -7.4222E+00  0.0000E+00  8.9998E+00  8.9998E+00  0.0000E+00  0.0000E+00  0.0000E+00  0.0000E+00  0.0000E+00
   2.458s  1.5643E+04  0.0000E+00  0.0000E+00  0.0000E+00  9.0000E+01  9.0000E+01  9.0000E+01  0.0000E+00 -5.5823E-03

  rolling -1.1923E+01  1.3265E+02 -1.1777E+01 -1.1777E+01  0.0000E+00  0.0000E+00  0.0000E+00  0.0000E+00  0.0000E+00
 averages -7.8150E+00  0.0000E+00  9.9755E+00  9.9755E+00  0.0000E+00  0.0000E+00  0.0000E+00  0.0000E+00  0.0000E+00
           1.5681E+04  0.0000E+00  0.0000E+00  0.0000E+00  9.0000E+01  9.0000E+01  9.0000E+01  0.0000E+00 -4.1336E-02
 ------------------------------------------------------------------------------------------------------------------------
     6900 -1.1927E+01  1.3513E+02 -1.1744E+01 -1.1744E+01  0.0000E+00  0.0000E+00  0.0000E+00  0.0000E+00  0.0000E+00
   6.900p -6.3703E+00  0.0000E+00  6.1488E+00  6.1488E+00  0.0000E+00  0.0000E+00  0.0000E+00  0.0000E+00  0.0000E+00
   2.490s  1.5567E+04  0.0000E+00  0.0000E+00  0.0000E+00  9.0000E+01  9.0000E+01  9.0000E+01  0.0000E+00  9.3428E-02

  rolling -1.1927E+01  1.3514E+02 -1.1784E+01 -1.1784E+01  0.0000E+00  0.0000E+00  0.0000E+00  0.0000E+00  0.0000E+00
 averages -6.9674E+00  0.0000E+00  7.8215E+00  7.8215E+00  0.0000E+00  0.0000E+00  0.0000E+00  0.0000E+00  0.0000E+00
           1.5604E+04  0.0000E+00  0.0000E+00  0.0000E+00  9.0000E+01  9.0000E+01  9.0000E+01  0.0000E+00  3.6769E-02
 ------------------------------------------------------------------------------------------------------------------------
     7000 -1.1928E+01  1.3326E+02 -1.1605E+01 -1.1605E+01  0.0000E+00  0.0000E+00  0.0000E+00  0.0000E+00  0.0000E+00
   7.000p -5.2385E+00  0.0000E+00  2.8623E+00  2.8623E+00  0.0000E+00  0.0000E+00  0.0000E+00  0.0000E+00  0.0000E+00
   2.522s  1.5533E+04  0.0000E+00  0.0000E+00  0.0000E+00  9.0000E+01  9.0000E+01  9.0000E+01  0.0000E+00  2.0097E-01

  rolling -1.1927E+01  1.3403E+02 -1.1667E+01 -1.1667E+01  0.0000E+00  0.0000E+00  0.0000E+00  0.0000E+00  0.0000E+00
 averages -5.7110E+00  0.0000E+00  4.2203E+00  4.2203E+00  0.0000E+00  0.0000E+00  0.0000E+00  0.0000E+00  0.0000E+00
           1.5544E+04  0.0000E+00  0.0000E+00  0.0000E+00  9.0000E+01  9.0000E+01  9.0000E+01  0.0000E+00  1.5651E-01
 ------------------------------------------------------------------------------------------------------------------------
     7100 -1.1920E+01  1.4425E+02 -1.1888E+01 -1.1888E+01  0.0000E+00  0.0000E+00  0.0000E+00  0.0000E+00  0.0000E+00
   7.100p -6.5977E+00  0.0000E+00  7.9027E+00  7.9027E+00  0.0000E+00  0.0000E+00  0.0000E+00  0.0000E+00  0.0000E+00
   2.559s  1.5575E+04  0.0000E+00  0.0000E+00  0.0000E+00  9.0000E+01  9.0000E+01  9.0000E+01  0.0000E+00  5.4377E-02

  rolling -1.1924E+01  1.3772E+02 -1.1713E+01 -1.1713E+01  0.0000E+00  0.0000E+00  0.0000E+00  0.0000E+00  0.0000E+00
 averages -5.7401E+00  0.0000E+00  4.7803E+00  4.7803E+00  0.0000E+00  0.0000E+00  0.0000E+00  0.0000E+00  0.0000E+00
           1.5549E+04  0.0000E+00  0.0000E+00  0.0000E+00  9.0000E+01  9.0000E+01  9.0000E+01  0.0000E+00  1.4576E-01
 ------------------------------------------------------------------------------------------------------------------------
 ------------------------------------------------------------------------------------------------------------------------

     step     eng_tot    temp_tot     eng_cfg     eng_vdw     eng_cou     eng_bnd     eng_ang     eng_dih     eng_tet
 time          eng_pv    temp_rot     vir_cfg     vir_vdw     vir_cou     vir_bnd     vir_ang     vir_con     vir_tet
 cpu time      volume    temp_shl     eng_shl     vir_shl       alpha        beta       gamma     vir_pmf       press

 ------------------------------------------------------------------------------------------------------------------------
     7200 -1.1922E+01  1.4377E+02 -1.1803E+01 -1.1803E+01  0.0000E+00  0.0000E+00  0.0000E+00  0.0000E+00  0.0000E+00
   7.200p -6.4203E+00  0.0000E+00  7.5475E+00  7.5475E+00  0.0000E+00  0.0000E+00  0.0000E+00  0.0000E+00  0.0000E+00
   2.591s  1.5650E+04  0.0000E+00  0.0000E+00  0.0000E+00  9.0000E+01  9.0000E+01  9.0000E+01  0.0000E+00  6.5015E-02

  rolling -1.1920E+01  1.4551E+02 -1.1893E+01 -1.1893E+01  0.0000E+00  0.0000E+00  0.0000E+00  0.0000E+00  0.0000E+00
 averages -6.7353E+00  0.0000E+00  8.5086E+00  8.5086E+00  0.0000E+00  0.0000E+00  0.0000E+00  0.0000E+00  0.0000E+00
           1.5611E+04  0.0000E+00  0.0000E+00  0.0000E+00  9.0000E+01  9.0000E+01  9.0000E+01  0.0000E+00  3.6588E-02
 ------------------------------------------------------------------------------------------------------------------------
     7300 -1.1920E+01  1.3832E+02 -1.1561E+01 -1.1561E+01  0.0000E+00  0.0000E+00  0.0000E+00  0.0000E+00  0.0000E+00
   7.300p -5.5111E+00  0.0000E+00  4.6453E+00  4.6453E+00  0.0000E+00  0.0000E+00  0.0000E+00  0.0000E+00  0.0000E+00
   2.623s  1.5756E+04  0.0000E+00  0.0000E+00  0.0000E+00  9.0000E+01  9.0000E+01  9.0000E+01  0.0000E+00  1.4963E-01

  rolling -1.1921E+01  1.4116E+02 -1.1684E+01 -1.1684E+01  0.0000E+00  0.0000E+00  0.0000E+00  0.0000E+00  0.0000E+00
 averages -5.9440E+00  0.0000E+00  6.0449E+00  6.0449E+00  0.0000E+00  0.0000E+00  0.0000E+00  0.0000E+00  0.0000E+00
           1.5699E+04  0.0000E+00  0.0000E+00  0.0000E+00  9.0000E+01  9.0000E+01  9.0000E+01  0.0000E+00  1.0943E-01
 ------------------------------------------------------------------------------------------------------------------------
     7400 -1.1917E+01  1.3935E+02 -1.1543E+01 -1.1543E+01  0.0000E+00  0.0000E+00  0.0000E+00  0.0000E+00  0.0000E+00
   7.400p -6.2972E+00  0.0000E+00  7.2273E+00  7.2273E+00  0.0000E+00  0.0000E+00  0.0000E+00  0.0000E+00  0.0000E+00
   2.657s  1.5925E+04  0.0000E+00  0.0000E+00  0.0000E+00  9.0000E+01  9.0000E+01  9.0000E+01  0.0000E+00  6.4835E-02

  rolling -1.1919E+01  1.3764E+02 -1.1514E+01 -1.1514E+01  0.0000E+00  0.0000E+00  0.0000E+00  0.0000E+00  0.0000E+00
 averages -5.6745E+00  0.0000E+00  5.1666E+00  5.1666E+00  0.0000E+00  0.0000E+00  0.0000E+00  0.0000E+00  0.0000E+00
           1.5836E+04  0.0000E+00  0.0000E+00  0.0000E+00  9.0000E+01  9.0000E+01  9.0000E+01  0.0000E+00  1.3012E-01
 ------------------------------------------------------------------------------------------------------------------------
     7500 -1.1922E+01  1.4215E+02 -1.1579E+01 -1.1579E+01  0.0000E+00  0.0000E+00  0.0000E+00  0.0000E+00  0.0000E+00
   7.500p -7.5186E+00  0.0000E+00  1.1246E+01  1.1246E+01  0.0000E+00  0.0000E+00  0.0000E+00  0.0000E+00  0.0000E+00
   2.689s  1.6124E+04  0.0000E+00  0.0000E+00  0.0000E+00  9.0000E+01  9.0000E+01  9.0000E+01  0.0000E+00 -6.1297E-02

  rolling -1.1919E+01  1.4185E+02 -1.1598E+01 -1.1598E+01  0.0000E+00  0.0000E+00  0.0000E+00  0.0000E+00  0.0000E+00
 averages -7.1013E+00  0.0000E+00  9.8881E+00  9.8881E+00  0.0000E+00  0.0000E+00  0.0000E+00  0.0000E+00  0.0000E+00
           1.6026E+04  0.0000E+00  0.0000E+00  0.0000E+00  9.0000E+01  9.0000E+01  9.0000E+01  0.0000E+00 -1.7504E-02
 ------------------------------------------------------------------------------------------------------------------------
     7600 -1.1927E+01  1.3552E+02 -1.1308E+01 -1.1308E+01  0.0000E+00  0.0000E+00  0.0000E+00  0.0000E+00  0.0000E+00
   7.600p -7.1293E+00  0.0000E+00  9.7966E+00  9.7966E+00  0.0000E+00  0.0000E+00  0.0000E+00  0.0000E+00  0.0000E+00
   2.721s  1.6310E+04  0.0000E+00  0.0000E+00  0.0000E+00  9.0000E+01  9.0000E+01  9.0000E+01  0.0000E+00 -2.7889E-02

  rolling -1.1924E+01  1.3744E+02 -1.1396E+01 -1.1396E+01  0.0000E+00  0.0000E+00  0.0000E+00  0.0000E+00  0.0000E+00
 averages -7.1450E+00  0.0000E+00  9.8977E+00  9.8977E+00  0.0000E+00  0.0000E+00  0.0000E+00  0.0000E+00  0.0000E+00
           1.6219E+04  0.0000E+00  0.0000E+00  0.0000E+00  9.0000E+01  9.0000E+01  9.0000E+01  0.0000E+00 -2.7245E-02
 ------------------------------------------------------------------------------------------------------------------------
     7700 -1.1927E+01  1.3751E+02 -1.1315E+01 -1.1315E+01  0.0000E+00  0.0000E+00  0.0000E+00  0.0000E+00  0.0000E+00
   7.700p -7.7683E+00  0.0000E+00  1.2022E+01  1.2022E+01  0.0000E+00  0.0000E+00  0.0000E+00  0.0000E+00  0.0000E+00
   2.753s  1.6477E+04  0.0000E+00  0.0000E+00  0.0000E+00  9.0000E+01  9.0000E+01  9.0000E+01  0.0000E+00 -9.4593E-02

  rolling -1.1926E+01  1.3765E+02 -1.1349E+01 -1.1349E+01  0.0000E+00  0.0000E+00  0.0000E+00  0.0000E+00  0.0000E+00
 averages -7.6285E+00  0.0000E+00  1.1525E+01  1.1525E+01  0.0000E+00  0.0000E+00  0.0000E+00  0.0000E+00  0.0000E+00
           1.6397E+04  0.0000E+00  0.0000E+00  0.0000E+00  9.0000E+01  9.0000E+01  9.0000E+01  0.0000E+00 -7.8715E-02
 ------------------------------------------------------------------------------------------------------------------------
     7800 -1.1922E+01  1.3061E+02 -1.1032E+01 -1.1032E+01  0.0000E+00  0.0000E+00  0.0000E+00  0.0000E+00  0.0000E+00
   7.800p -6.8908E+00  0.0000E+00  9.1018E+00  9.1018E+00  0.0000E+00  0.0000E+00  0.0000E+00  0.0000E+00  0.0000E+00
   2.787s  1.6608E+04  0.0000E+00  0.0000E+00  0.0000E+00  9.0000E+01  9.0000E+01  9.0000E+01  0.0000E+00 -1.5608E-02

  rolling -1.1923E+01  1.3393E+02 -1.1167E+01 -1.1167E+01  0.0000E+00  0.0000E+00  0.0000E+00  0.0000E+00  0.0000E+00
 averages -7.3186E+00  0.0000E+00  1.0526E+01  1.0526E+01  0.0000E+00  0.0000E+00  0.0000E+00  0.0000E+00  0.0000E+00
           1.6545E+04  0.0000E+00  0.0000E+00  0.0000E+00  9.0000E+01  9.0000E+01  9.0000E+01  0.0000E+00 -5.4127E-02
 ------------------------------------------------------------------------------------------------------------------------
     7900 -1.1918E+01  1.3319E+02 -1.1070E+01 -1.1070E+01  0.0000E+00  0.0000E+00  0.0000E+00  0.0000E+00  0.0000E+00
   7.900p -7.4444E+00  0.0000E+00  1.1076E+01  1.1076E+01  0.0000E+00  0.0000E+00  0.0000E+00  0.0000E+00  0.0000E+00
   2.821s  1.6728E+04  0.0000E+00  0.0000E+00  0.0000E+00  9.0000E+01  9.0000E+01  9.0000E+01  0.0000E+00 -7.2321E-02

  rolling -1.1920E+01  1.2988E+02 -1.0985E+01 -1.0985E+01  0.0000E+00  0.0000E+00  0.0000E+00  0.0000E+00  0.0000E+00
 averages -6.8905E+00  0.0000E+00  9.1228E+00  9.1228E+00  0.0000E+00  0.0000E+00  0.0000E+00  0.0000E+00  0.0000E+00
           1.6669E+04  0.0000E+00  0.0000E+00  0.0000E+00  9.0000E+01  9.0000E+01  9.0000E+01  0.0000E+00 -1.7691E-02
 ------------------------------------------------------------------------------------------------------------------------
 ------------------------------------------------------------------------------------------------------------------------

     step     eng_tot    temp_tot     eng_cfg     eng_vdw     eng_cou     eng_bnd     eng_ang     eng_dih     eng_tet
 time          eng_pv    temp_rot     vir_cfg     vir_vdw     vir_cou     vir_bnd     vir_ang     vir_con     vir_tet
 cpu time      volume    temp_shl     eng_shl     vir_shl       alpha        beta       gamma     vir_pmf       press

 ------------------------------------------------------------------------------------------------------------------------
     8000 -1.1922E+01  1.3140E+02 -1.0967E+01 -1.0967E+01  0.0000E+00  0.0000E+00  0.0000E+00  0.0000E+00  0.0000E+00
   8.000p -7.2492E+00  0.0000E+00  1.0501E+01  1.0501E+01  0.0000E+00  0.0000E+00  0.0000E+00  0.0000E+00  0.0000E+00
   2.852s  1.6820E+04  0.0000E+00  0.0000E+00  0.0000E+00  9.0000E+01  9.0000E+01  9.0000E+01  0.0000E+00 -5.7617E-02

  rolling -1.1919E+01  1.3378E+02 -1.1066E+01 -1.1066E+01  0.0000E+00  0.0000E+00  0.0000E+00  0.0000E+00  0.0000E+00
 averages -7.5724E+00  0.0000E+00  1.1568E+01  1.1568E+01  0.0000E+00  0.0000E+00  0.0000E+00  0.0000E+00  0.0000E+00
           1.6778E+04  0.0000E+00  0.0000E+00  0.0000E+00  9.0000E+01  9.0000E+01  9.0000E+01  0.0000E+00 -8.6372E-02
 ------------------------------------------------------------------------------------------------------------------------
     8100 -1.1924E+01  1.3440E+02 -1.1028E+01 -1.1028E+01  0.0000E+00  0.0000E+00  0.0000E+00  0.0000E+00  0.0000E+00
   8.100p -7.5385E+00  0.0000E+00  1.1682E+01  1.1682E+01  0.0000E+00  0.0000E+00  0.0000E+00  0.0000E+00  0.0000E+00
   2.893s  1.6876E+04  0.0000E+00  0.0000E+00  0.0000E+00  9.0000E+01  9.0000E+01  9.0000E+01  0.0000E+00 -8.8124E-02

  rolling -1.1922E+01  1.3217E+02 -1.0973E+01 -1.0973E+01  0.0000E+00  0.0000E+00  0.0000E+00  0.0000E+00  0.0000E+00
 averages -7.2880E+00  0.0000E+00  1.0729E+01  1.0729E+01  0.0000E+00  0.0000E+00  0.0000E+00  0.0000E+00  0.0000E+00
           1.6851E+04  0.0000E+00  0.0000E+00  0.0000E+00  9.0000E+01  9.0000E+01  9.0000E+01  0.0000E+00 -6.3031E-02
 ------------------------------------------------------------------------------------------------------------------------
     8200 -1.1923E+01  1.3729E+02 -1.1084E+01 -1.1084E+01  0.0000E+00  0.0000E+00  0.0000E+00  0.0000E+00  0.0000E+00
[...]
  99.000p -8.3951E+00  0.0000E+00  7.6315E+00  7.6315E+00  0.0000E+00  0.0000E+00  0.0000E+00  0.0000E+00  0.0000E+00
  32.934s  1.4542E+04  0.0000E+00  0.0000E+00  0.0000E+00  9.0000E+01  9.0000E+01  9.0000E+01  0.0000E+00  2.3691E-02

  rolling -1.1928E+01  1.2253E+02 -1.2650E+01 -1.2650E+01  0.0000E+00  0.0000E+00  0.0000E+00  0.0000E+00  0.0000E+00
 averages -7.6173E+00  0.0000E+00  5.0971E+00  5.0971E+00  0.0000E+00  0.0000E+00  0.0000E+00  0.0000E+00  0.0000E+00
           1.4485E+04  0.0000E+00  0.0000E+00  0.0000E+00  9.0000E+01  9.0000E+01  9.0000E+01  0.0000E+00  1.0852E-01
 ------------------------------------------------------------------------------------------------------------------------
    99100 -1.1925E+01  1.2597E+02 -1.2758E+01 -1.2758E+01  0.0000E+00  0.0000E+00  0.0000E+00  0.0000E+00  0.0000E+00
  99.100p -8.8824E+00  0.0000E+00  9.1355E+00  9.1355E+00  0.0000E+00  0.0000E+00  0.0000E+00  0.0000E+00  0.0000E+00
  32.981s  1.4661E+04  0.0000E+00  0.0000E+00  0.0000E+00  9.0000E+01  9.0000E+01  9.0000E+01  0.0000E+00 -2.9879E-02

  rolling -1.1928E+01  1.2742E+02 -1.2811E+01 -1.2811E+01  0.0000E+00  0.0000E+00  0.0000E+00  0.0000E+00  0.0000E+00
 averages -8.9055E+00  0.0000E+00  9.2842E+00  9.2842E+00  0.0000E+00  0.0000E+00  0.0000E+00  0.0000E+00  0.0000E+00
           1.4603E+04  0.0000E+00  0.0000E+00  0.0000E+00  9.0000E+01  9.0000E+01  9.0000E+01  0.0000E+00 -3.1889E-02
 ------------------------------------------------------------------------------------------------------------------------
 ------------------------------------------------------------------------------------------------------------------------

     step     eng_tot    temp_tot     eng_cfg     eng_vdw     eng_cou     eng_bnd     eng_ang     eng_dih     eng_tet
 time          eng_pv    temp_rot     vir_cfg     vir_vdw     vir_cou     vir_bnd     vir_ang     vir_con     vir_tet
 cpu time      volume    temp_shl     eng_shl     vir_shl       alpha        beta       gamma     vir_pmf       press

 ------------------------------------------------------------------------------------------------------------------------
    99200 -1.1927E+01  1.2117E+02 -1.2601E+01 -1.2601E+01  0.0000E+00  0.0000E+00  0.0000E+00  0.0000E+00  0.0000E+00
  99.200p -8.4767E+00  0.0000E+00  7.5970E+00  7.5970E+00  0.0000E+00  0.0000E+00  0.0000E+00  0.0000E+00  0.0000E+00
  33.020s  1.4772E+04  0.0000E+00  0.0000E+00  0.0000E+00  9.0000E+01  9.0000E+01  9.0000E+01  0.0000E+00  1.3949E-02

  rolling -1.1923E+01  1.2345E+02 -1.2672E+01 -1.2672E+01  0.0000E+00  0.0000E+00  0.0000E+00  0.0000E+00  0.0000E+00
 averages -8.6315E+00  0.0000E+00  8.2244E+00  8.2244E+00  0.0000E+00  0.0000E+00  0.0000E+00  0.0000E+00  0.0000E+00
           1.4717E+04  0.0000E+00  0.0000E+00  0.0000E+00  9.0000E+01  9.0000E+01  9.0000E+01  0.0000E+00 -3.1267E-03
 ------------------------------------------------------------------------------------------------------------------------
    99300 -1.1924E+01  1.2671E+02 -1.2778E+01 -1.2778E+01  0.0000E+00  0.0000E+00  0.0000E+00  0.0000E+00  0.0000E+00
  99.300p -9.7517E+00  0.0000E+00  1.1803E+01  1.1803E+01  0.0000E+00  0.0000E+00  0.0000E+00  0.0000E+00  0.0000E+00
  33.060s  1.4881E+04  0.0000E+00  0.0000E+00  0.0000E+00  9.0000E+01  9.0000E+01  9.0000E+01  0.0000E+00 -1.2218E-01

  rolling -1.1924E+01  1.2307E+02 -1.2660E+01 -1.2660E+01  0.0000E+00  0.0000E+00  0.0000E+00  0.0000E+00  0.0000E+00
 averages -8.9930E+00  0.0000E+00  9.2807E+00  9.2807E+00  0.0000E+00  0.0000E+00  0.0000E+00  0.0000E+00  0.0000E+00
           1.4828E+04  0.0000E+00  0.0000E+00  0.0000E+00  9.0000E+01  9.0000E+01  9.0000E+01  0.0000E+00 -4.1422E-02
 ------------------------------------------------------------------------------------------------------------------------
    99400 -1.1931E+01  1.2133E+02 -1.2603E+01 -1.2603E+01  0.0000E+00  0.0000E+00  0.0000E+00  0.0000E+00  0.0000E+00
  99.400p -9.1487E+00  0.0000E+00  9.6344E+00  9.6344E+00  0.0000E+00  0.0000E+00  0.0000E+00  0.0000E+00  0.0000E+00
  33.092s  1.4949E+04  0.0000E+00  0.0000E+00  0.0000E+00  9.0000E+01  9.0000E+01  9.0000E+01  0.0000E+00 -5.7668E-02

  rolling -1.1927E+01  1.2628E+02 -1.2764E+01 -1.2764E+01  0.0000E+00  0.0000E+00  0.0000E+00  0.0000E+00  0.0000E+00
 averages -9.8062E+00  0.0000E+00  1.1938E+01  1.1938E+01  0.0000E+00  0.0000E+00  0.0000E+00  0.0000E+00  0.0000E+00
           1.4920E+04  0.0000E+00  0.0000E+00  0.0000E+00  9.0000E+01  9.0000E+01  9.0000E+01  0.0000E+00 -1.2766E-01
 ------------------------------------------------------------------------------------------------------------------------
    99500 -1.1932E+01  1.1165E+02 -1.2288E+01 -1.2288E+01  0.0000E+00  0.0000E+00  0.0000E+00  0.0000E+00  0.0000E+00
  99.500p -7.9269E+00  0.0000E+00  5.3174E+00  5.3174E+00  0.0000E+00  0.0000E+00  0.0000E+00  0.0000E+00  0.0000E+00
  33.125s  1.4999E+04  0.0000E+00  0.0000E+00  0.0000E+00  9.0000E+01  9.0000E+01  9.0000E+01  0.0000E+00  7.1788E-02

  rolling -1.1932E+01  1.1446E+02 -1.2379E+01 -1.2379E+01  0.0000E+00  0.0000E+00  0.0000E+00  0.0000E+00  0.0000E+00
 averages -8.2132E+00  0.0000E+00  6.3679E+00  6.3679E+00  0.0000E+00  0.0000E+00  0.0000E+00  0.0000E+00  0.0000E+00
           1.4972E+04  0.0000E+00  0.0000E+00  0.0000E+00  9.0000E+01  9.0000E+01  9.0000E+01  0.0000E+00  4.1419E-02
 ------------------------------------------------------------------------------------------------------------------------
    99600 -1.1932E+01  1.1588E+02 -1.2427E+01 -1.2427E+01  0.0000E+00  0.0000E+00  0.0000E+00  0.0000E+00  0.0000E+00
  99.600p -9.1221E+00  0.0000E+00  9.1812E+00  9.1812E+00  0.0000E+00  0.0000E+00  0.0000E+00  0.0000E+00  0.0000E+00
  33.158s  1.5066E+04  0.0000E+00  0.0000E+00  0.0000E+00  9.0000E+01  9.0000E+01  9.0000E+01  0.0000E+00 -5.3957E-02

  rolling -1.1934E+01  1.1428E+02 -1.2377E+01 -1.2377E+01  0.0000E+00  0.0000E+00  0.0000E+00  0.0000E+00  0.0000E+00
 averages -8.5928E+00  0.0000E+00  7.4830E+00  7.4830E+00  0.0000E+00  0.0000E+00  0.0000E+00  0.0000E+00  0.0000E+00
           1.5033E+04  0.0000E+00  0.0000E+00  0.0000E+00  9.0000E+01  9.0000E+01  9.0000E+01  0.0000E+00  1.8411E-03
 ------------------------------------------------------------------------------------------------------------------------
    99700 -1.1931E+01  1.1122E+02 -1.2270E+01 -1.2270E+01  0.0000E+00  0.0000E+00  0.0000E+00  0.0000E+00  0.0000E+00
  99.700p -8.8784E+00  0.0000E+00  8.1529E+00  8.1529E+00  0.0000E+00  0.0000E+00  0.0000E+00  0.0000E+00  0.0000E+00
  33.190s  1.5120E+04  0.0000E+00  0.0000E+00  0.0000E+00  9.0000E+01  9.0000E+01  9.0000E+01  0.0000E+00 -2.8628E-02

  rolling -1.1930E+01  1.1337E+02 -1.2342E+01 -1.2342E+01  0.0000E+00  0.0000E+00  0.0000E+00  0.0000E+00  0.0000E+00
 averages -8.9922E+00  0.0000E+00  8.6348E+00  8.6348E+00  0.0000E+00  0.0000E+00  0.0000E+00  0.0000E+00  0.0000E+00
           1.5095E+04  0.0000E+00  0.0000E+00  0.0000E+00  9.0000E+01  9.0000E+01  9.0000E+01  0.0000E+00 -4.0563E-02
 ------------------------------------------------------------------------------------------------------------------------
    99800 -1.1935E+01  1.1864E+02 -1.2515E+01 -1.2515E+01  0.0000E+00  0.0000E+00  0.0000E+00  0.0000E+00  0.0000E+00
  99.800p -1.0128E+01  0.0000E+00  1.2390E+01  1.2390E+01  0.0000E+00  0.0000E+00  0.0000E+00  0.0000E+00  0.0000E+00
  33.223s  1.5151E+04  0.0000E+00  0.0000E+00  0.0000E+00  9.0000E+01  9.0000E+01  9.0000E+01  0.0000E+00 -1.5893E-01

  rolling -1.1933E+01  1.1549E+02 -1.2411E+01 -1.2411E+01  0.0000E+00  0.0000E+00  0.0000E+00  0.0000E+00  0.0000E+00
 averages -9.6026E+00  0.0000E+00  1.0608E+01  1.0608E+01  0.0000E+00  0.0000E+00  0.0000E+00  0.0000E+00  0.0000E+00
           1.5139E+04  0.0000E+00  0.0000E+00  0.0000E+00  9.0000E+01  9.0000E+01  9.0000E+01  0.0000E+00 -1.0422E-01
 ------------------------------------------------------------------------------------------------------------------------
    99900 -1.1934E+01  1.1956E+02 -1.2545E+01 -1.2545E+01  0.0000E+00  0.0000E+00  0.0000E+00  0.0000E+00  0.0000E+00
  99.900p -9.8920E+00  0.0000E+00  1.1745E+01  1.1745E+01  0.0000E+00  0.0000E+00  0.0000E+00  0.0000E+00  0.0000E+00
  33.255s  1.5122E+04  0.0000E+00  0.0000E+00  0.0000E+00  9.0000E+01  9.0000E+01  9.0000E+01  0.0000E+00 -1.3463E-01

  rolling -1.1932E+01  1.1932E+02 -1.2535E+01 -1.2535E+01  0.0000E+00  0.0000E+00  0.0000E+00  0.0000E+00  0.0000E+00
 averages -1.0091E+01  0.0000E+00  1.2334E+01  1.2334E+01  0.0000E+00  0.0000E+00  0.0000E+00  0.0000E+00  0.0000E+00
           1.5141E+04  0.0000E+00  0.0000E+00  0.0000E+00  9.0000E+01  9.0000E+01  9.0000E+01  0.0000E+00 -1.5552E-01
 ------------------------------------------------------------------------------------------------------------------------
 ------------------------------------------------------------------------------------------------------------------------

     step     eng_tot    temp_tot     eng_cfg     eng_vdw     eng_cou     eng_bnd     eng_ang     eng_dih     eng_tet
 time          eng_pv    temp_rot     vir_cfg     vir_vdw     vir_cou     vir_bnd     vir_ang     vir_con     vir_tet
 cpu time      volume    temp_shl     eng_shl     vir_shl       alpha        beta       gamma     vir_pmf       press

 ------------------------------------------------------------------------------------------------------------------------
   100000 -1.1929E+01  1.1315E+02 -1.2328E+01 -1.2328E+01  0.0000E+00  0.0000E+00  0.0000E+00  0.0000E+00  0.0000E+00
 100.000p -8.2942E+00  0.0000E+00  6.5458E+00  6.5458E+00  0.0000E+00  0.0000E+00  0.0000E+00  0.0000E+00  0.0000E+00
  33.287s  1.5048E+04  0.0000E+00  0.0000E+00  0.0000E+00  9.0000E+01  9.0000E+01  9.0000E+01  0.0000E+00  3.1989E-02

  rolling -1.1931E+01  1.1538E+02 -1.2405E+01 -1.2405E+01  0.0000E+00  0.0000E+00  0.0000E+00  0.0000E+00  0.0000E+00
 averages -8.9606E+00  0.0000E+00  8.6825E+00  8.6825E+00  0.0000E+00  0.0000E+00  0.0000E+00  0.0000E+00  0.0000E+00
           1.5085E+04  0.0000E+00  0.0000E+00  0.0000E+00  9.0000E+01  9.0000E+01  9.0000E+01  0.0000E+00 -3.7524E-02
 ------------------------------------------------------------------------------------------------------------------------


 run terminating. elapsed cpu time =   3.32870E+01, job time =   1.000h, close time = 1000.00s



 run terminated after  100000 steps. final averages calculated over   50000 steps.


 ------------------------------------------------------------------------------------------------------------------------

     step     eng_tot    temp_tot     eng_cfg     eng_vdw     eng_cou     eng_bnd     eng_ang     eng_dih     eng_tet
 time          eng_pv    temp_rot     vir_cfg     vir_vdw     vir_cou     vir_bnd     vir_ang     vir_con     vir_tet
 cpu time      volume    temp_shl     eng_shl     vir_shl       alpha        beta       gamma     vir_pmf       press

 ------------------------------------------------------------------------------------------------------------------------
   100000 -1.1927E+01  1.1954E+02 -1.3051E+01 -1.3051E+01  0.0000E+00  0.0000E+00  0.0000E+00  0.0000E+00  0.0000E+00
 100.000p -9.1069E+00  0.0000E+00  7.8672E+00  7.8672E+00  0.0000E+00  0.0000E+00  0.0000E+00  0.0000E+00  0.0000E+00
  33.292s  1.4312E+04  0.0000E+00  0.0000E+00  0.0000E+00  9.0000E+01  9.0000E+01  9.0000E+01  0.0000E+00  1.6561E-03

  r.m.s.   3.8131E-03  5.5103E+00  2.5724E-01  2.5724E-01  0.0000E+00  0.0000E+00  0.0000E+00  0.0000E+00  0.0000E+00
 fluctn.   9.9702E-01  0.0000E+00  2.8505E+00  2.8505E+00  0.0000E+00  0.0000E+00  0.0000E+00  0.0000E+00  0.0000E+00
           2.8905E+02  0.0000E+00  0.0000E+00  0.0000E+00  2.0318E-13  2.0318E-13  2.0318E-13  0.0000E+00  1.0664E-01
 ------------------------------------------------------------------------------------------------------------------------


            Approximate 3D Diffusion  coefficients (10^-9 m^2 / s)

            atom        D 
            Ar         5.4550E+00


                Average pressure tensor                                       r.m.s. fluctuations 

          -6.8048E-04 -3.7232E-03  1.6354E-04                          1.4124E-01  8.3973E-02  8.3771E-02
          -3.7232E-03 -3.1040E-04 -3.2589E-03                          8.3973E-02  1.4323E-01  9.0873E-02
           1.6354E-04 -3.2589E-03  5.9591E-03                          8.3771E-02  9.0873E-02  1.5768E-01

            trace/3.   1.6561E-03


                 Average cell vectors                                         r.m.s. fluctuations 

       24.2779426974        0.0000000000        0.0000000000           1.6310E-01  0.0000E+00  0.0000E+00
        0.0000000000       24.2779426974        0.0000000000           0.0000E+00  1.6310E-01  0.0000E+00
        0.0000000000        0.0000000000       24.2779426974           0.0000E+00  0.0000E+00  1.6310E-01


 sample of final configuration

      i       x(i)        y(i)        z(i)       vx(i)       vy(i)       vz(i)       fx(i)       fy(i)       fz(i)


      1 -3.7985E-01 -7.6814E+00  2.9885E-01  1.0422E+00 -4.5800E-01 -1.2806E+00  3.4216E+02 -1.6741E+02  2.6273E+02
     14  8.8600E+00 -3.7848E+00  7.6167E+00 -1.0945E+00  2.8217E-01  1.7963E+00 -4.2422E+02 -2.3762E+01 -1.3422E+01
     27 -5.5806E+00  9.6756E+00 -1.0331E+01 -2.7399E+00  1.4333E+00  5.9348E-01 -2.5615E+02  1.5791E+02  1.1948E+02
     40  6.9660E+00  1.1607E+01  3.6999E+00  1.7448E+00 -4.9183E-01  1.8617E+00 -1.1132E+03 -9.1745E+01  1.1463E+03
     53 -9.7251E+00  7.0028E+00  1.9536E+00  2.3546E-01  2.6774E+00  7.7515E-01 -1.6642E+01 -4.1498E+02 -1.7030E+00
     66  7.9286E-01  1.0100E+00  5.7701E+00 -7.9150E-02  6.9169E-01  2.0617E+00  2.9007E+02 -2.3634E+02 -1.7507E+02
     79 -4.9489E+00 -1.2066E+01  7.3409E+00 -7.0744E-01 -5.2268E-01  7.9541E-01  6.1980E+01  2.7669E+01  7.3183E+01
     92  6.2118E+00 -1.1422E+01 -9.3401E+00 -6.2502E-01 -2.9856E-01 -5.2607E-01  1.2719E+03  8.3944E+02  5.8842E+02
    105 -3.5762E+00  2.0936E+00 -6.5180E+00 -6.6861E-01 -3.8840E-01  2.0722E+00  3.9375E+02 -3.4352E+02  7.2744E+02
    118  1.1981E+01  7.0193E+00  1.1240E+01  5.1320E-01  1.6051E-01  1.9295E+00  8.1177E+02  5.0930E+01  6.4252E+01
    131  5.3251E+00 -2.8198E+00 -6.7728E+00 -3.7310E-02 -7.3576E-01 -6.2463E-01 -1.4929E+02  3.1484E+01 -1.6391E+01
    144  1.0709E+01 -8.3592E+00  2.4963E+00 -5.4401E-01 -1.4697E+00 -1.5829E-01  3.4589E+02 -6.7759E+02  6.5063E+02
    157 -6.2738E+00 -1.5780E+00 -2.8857E+00 -3.3938E-01 -3.6025E-01  5.3173E-01  8.3982E+02  5.9414E+02  4.5394E+02
    170 -1.1174E+01 -8.4965E+00 -1.9518E+00  4.4285E-01 -9.4246E-01  6.9959E-01  3.9639E+02  3.1152E+02  3.5433E+02
    183 -6.9880E-01 -5.0471E+00 -6.3957E+00  2.5916E+00 -6.3034E-01 -1.3722E+00 -1.0732E+03 -1.0378E+02  7.3929E+02
    196 -4.7382E+00 -5.7690E+00 -1.0208E+01  2.6911E+00 -6.4315E-01 -1.5223E+00  4.2519E+01 -6.8720E+01  6.6391E+02
    209 -7.2832E+00 -9.5592E+00  1.8062E+00 -6.3689E-01 -2.7678E+00 -9.2568E-01  2.7327E+01  1.8171E+02  3.4267E+02
    222 -6.8419E+00 -1.0773E+01  1.2042E+01 -2.2808E+00  2.7213E-02  9.4944E-01 -1.4556E+02 -4.2153E+02 -2.8831E+02
    235 -1.0074E+00 -1.1563E+01  5.9918E-02 -9.5540E-02  1.9070E+00 -1.3533E+00  2.9300E+01  8.7867E+01 -8.5577E+00
    248  4.3100E+00 -8.8297E+00  1.2007E+01  4.0515E-01  1.4970E+00 -3.2883E+00 -5.7774E+01 -1.2938E+02  9.7651E+01


            RADIAL DISTRIBUTION FUNCTIONS

calculated using       5000 configurations

g(r)  :Ar      Ar      

        r      g(r)         n(r)

    2.8750  0.000000E+00  0.000000E+00
    2.9250  0.000000E+00  0.000000E+00
    2.9750  3.141525E-05  3.125000E-06
    3.0250  4.557800E-04  5.000000E-05
    3.0750  3.602143E-03  4.328125E-04
    3.1250  1.936084E-02  2.557812E-03
    3.1750  6.496977E-02  9.918750E-03
    3.2250  1.706135E-01  2.986250E-02
    3.2750  3.531429E-01  7.243281E-02
    3.3250  6.436568E-01  1.524109E-01
    3.3750  9.775260E-01  2.775547E-01
    3.4250  1.314830E+00  4.509047E-01
    3.4750  1.667846E+00  6.772641E-01
    3.5250  1.965158E+00  9.517047E-01
    3.5750  2.187476E+00  1.265920E+00
    3.6250  2.332265E+00  1.610370E+00
    3.6750  2.405133E+00  1.975448E+00
    3.7250  2.412507E+00  2.351678E+00
    3.7750  2.382691E+00  2.733300E+00
    3.8250  2.322897E+00  3.115266E+00
    3.8750  2.231942E+00  3.491933E+00
    3.9250  2.127224E+00  3.860252E+00
    3.9750  2.020146E+00  4.218998E+00
    4.0250  1.909066E+00  4.566602E+00
    4.0750  1.808598E+00  4.904144E+00
    4.1250  1.687597E+00  5.226880E+00
    4.1750  1.586778E+00  5.537736E+00
    4.2250  1.491133E+00  5.836894E+00
    4.2750  1.411074E+00  6.126730E+00
    4.3250  1.333791E+00  6.407137E+00
    4.3750  1.255425E+00  6.677208E+00
    4.4250  1.195818E+00  6.940369E+00
    4.4750  1.132520E+00  7.195264E+00
    4.5250  1.085835E+00  7.445144E+00
    4.5750  1.042099E+00  7.690287E+00
    4.6250  9.951217E-01  7.929525E+00
    4.6750  9.521059E-01  8.163397E+00
    4.7250  9.184125E-01  8.393844E+00
    4.7750  8.825728E-01  8.620009E+00
    4.8250  8.675112E-01  8.846995E+00
    4.8750  8.369906E-01  9.070558E+00
    4.9250  8.207471E-01  9.294302E+00
    4.9750  8.085848E-01  9.519228E+00
    5.0250  7.843866E-01  9.741831E+00
    5.0750  7.702431E-01  9.964792E+00
    5.1250  7.569494E-01  1.018824E+01
    5.1750  7.507614E-01  1.041421E+01
    5.2250  7.365329E-01  1.064021E+01
    5.2750  7.371507E-01  1.087074E+01
    5.3250  7.338010E-01  1.110459E+01
    5.3750  7.256165E-01  1.134020E+01
    5.4250  7.210041E-01  1.157869E+01
    5.4750  7.225928E-01  1.182213E+01
    5.5250  7.278046E-01  1.207182E+01
    5.5750  7.372228E-01  1.232935E+01
    5.6250  7.386044E-01  1.259200E+01
    5.6750  7.468120E-01  1.286232E+01
    5.7250  7.522248E-01  1.313941E+01
    5.7750  7.527161E-01  1.342155E+01
    5.8250  7.698828E-01  1.371514E+01
    5.8750  7.796522E-01  1.401758E+01
    5.9250  7.957753E-01  1.433156E+01
    5.9750  8.094838E-01  1.465636E+01
    6.0250  8.188686E-01  1.499044E+01
    6.0750  8.363986E-01  1.533736E+01
    6.1250  8.541609E-01  1.569751E+01
    6.1750  8.756779E-01  1.607278E+01
    6.2250  8.913518E-01  1.646098E+01
    6.2750  9.050576E-01  1.686151E+01
    6.3250  9.216989E-01  1.727593E+01
    6.3750  9.409416E-01  1.770571E+01
    6.4250  9.671074E-01  1.815440E+01
    6.4750  9.784652E-01  1.861546E+01
    6.5250  1.009356E+00  1.909844E+01
    6.5750  1.029856E+00  1.959882E+01
    6.6250  1.051804E+00  2.011766E+01
    6.6750  1.062144E+00  2.064954E+01
    6.7250  1.085790E+00  2.120143E+01
    6.7750  1.096434E+00  2.176706E+01
    6.8250  1.111292E+00  2.234884E+01
    6.8750  1.124603E+00  2.294625E+01
    6.9250  1.135920E+00  2.355848E+01
    6.9750  1.143068E+00  2.418349E+01
    7.0250  1.156487E+00  2.482494E+01
    7.0750  1.169073E+00  2.548263E+01
    7.1250  1.175716E+00  2.615344E+01
    7.1750  1.172138E+00  2.683163E+01
    7.2250  1.171682E+00  2.751903E+01
    7.2750  1.163972E+00  2.821140E+01
    7.3250  1.162656E+00  2.891252E+01
    7.3750  1.158010E+00  2.962040E+01
    7.4250  1.145107E+00  3.032993E+01
    7.4750  1.138933E+00  3.104516E+01
    7.5250  1.129529E+00  3.176401E+01
    7.5750  1.115733E+00  3.248354E+01
    7.6250  1.113324E+00  3.321104E+01
    7.6750  1.099371E+00  3.393886E+01
    7.7250  1.085284E+00  3.466675E+01
    7.7750  1.070691E+00  3.539419E+01
    7.8250  1.055994E+00  3.612089E+01
    7.8750  1.037769E+00  3.684421E+01
    7.9250  1.026597E+00  3.756885E+01
    7.9750  1.019835E+00  3.829784E+01
    8.0250  1.010183E+00  3.902900E+01
    8.0750  1.003824E+00  3.976465E+01
    8.1250  9.905260E-01  4.049957E+01
    8.1750  9.804977E-01  4.123603E+01
    8.2250  9.726286E-01  4.197554E+01
    8.2750  9.667494E-01  4.271955E+01
    8.3250  9.608606E-01  4.346798E+01
    8.3750  9.506945E-01  4.421742E+01
    8.4250  9.498461E-01  4.497516E+01
    8.4750  9.389077E-01  4.573309E+01

 time elapsed since job start =          33.294 seconds

