
                    DL_POLY Classic 1.9

                              Running on    1 nodes


 ************************************************************************************************************************
 ************************************************************************************************************************
 ************************************************************************************************************************
 ***************     ex7                                                                                  ***************
 ************************************************************************************************************************
 ************************************************************************************************************************
 ************************************************************************************************************************


 SIMULATION CONTROL PARAMETERS


 simulation temperature           8.6560E+01

 selected number of timesteps        40000

 simulation timestep              1.0000E-03

 equilibration period                20000

 temperature scaling on
 temperature scaling interval           10


 electrostatic potential terms off

 border width of Verlet shell     1.0000E+00

 real space cut off               8.5000E+00

 real space cut off (vdw)         8.5000E+00


 radial distribution functions on 
 g(r) collection interval               10
 g(r) bin width                   5.0000E-02

 g(r) printing option on      

 microcanonical ensemble

 data printing interval                100

 statistics file interval                1

 user allocated job time (h)      1.0000

 job closure time        (s)    1000.000


SYSTEM SPECIFICATION

 energy units=kelvin 


 number of molecular types               1

 molecular species type                  1


 name of species:             argon                                   

 number of molecules                   256

 number of atoms/sites                   1


 atomic characteristics:

                      site     name          mass        charge    repeat    freeze

                         1     A           39.95000     0.00000         1         0


 number of specified pair potentials         1


                atom 1  atom 2      key                              parameters


                A       A         nm       1.19800E+02  1.20000E+01  6.00000E+00  3.82198E+00

 configuration file name: 

          LJ                                                                              


 selected image convention               1


 simulation cell vectors


                        22.877600    0.000000    0.000000
                         0.000000   22.877600    0.000000
                         0.000000    0.000000   22.877600


 system volume            11973.7831077    


 total degrees of freedom                       765.
 rotational degrees of freedom                    0.
 shell pseudo degrees of freedom                  0.


 sample of starting configuration

      i       x(i)        y(i)        z(i)       vx(i)       vy(i)       vz(i)       fx(i)       fy(i)       fz(i)


      1  6.5996E+00 -3.6224E+00  8.1027E+00  2.7819E+00 -6.8985E-01 -1.4199E+00 -1.2079E+02  3.3473E+02 -3.8027E+02
     14 -1.0073E+01 -3.0031E+00  1.0536E+01 -3.5713E+00 -4.5987E-01 -2.8404E-01  1.4541E+02 -1.3995E+01 -3.7418E+02
     27 -7.7588E+00 -5.2980E+00 -6.5625E+00 -3.7539E-01 -1.1997E+00  8.0685E-02 -8.3500E+02  3.1101E+02  1.3814E+02
     40  7.3829E+00 -1.0784E+01  6.0369E+00  2.5883E+00  9.5675E-01 -2.3288E-01 -5.9814E+02  1.8525E+01  5.4089E+02
     53 -4.0737E+00  8.7281E+00 -6.1527E+00 -6.6476E-02  1.6792E+00  1.4229E+00  6.9192E+01  1.9906E+02 -6.8866E+02
     66  9.7191E+00 -2.2744E+00  6.5486E+00  1.8910E-01  5.4441E-02 -7.6025E-01  2.1393E+01  6.8352E+00  5.6545E+01
     79 -4.5905E+00  8.0929E-01 -4.4544E+00  3.0825E-01 -1.4258E-01 -7.4342E-01  6.5433E+01 -2.3167E+02 -3.7456E+02
     92  3.0857E-01 -5.5898E+00  9.8558E+00  6.3166E-02  5.6879E-01  1.0934E-01 -3.6152E+02  1.3171E+02  4.9945E+02
    105 -6.9340E+00 -4.3802E+00  7.2725E-01 -2.1862E+00 -1.9955E+00 -8.2697E-02 -1.2130E+02  2.1711E+02 -6.5533E+02
    118  7.4056E+00 -9.5620E+00  2.8489E+00 -2.5297E-01 -2.4042E+00  7.7992E-01 -1.5166E+03 -4.4908E+01 -1.4391E+03
    131 -8.4588E+00 -7.2073E+00 -9.3915E+00 -6.7538E-01 -4.1390E+00  2.8042E+00  2.7811E+02 -3.8319E+02 -5.7723E+02
    144  8.2926E+00 -5.5806E+00  1.0341E+01 -7.7722E-02 -3.7803E-01 -6.5629E-01  5.5480E+02  3.8432E+01  6.8457E+02
    157  1.0550E+01  1.1169E+00 -4.6792E+00 -1.3637E-01 -6.9860E-01  6.0422E-01  1.1427E+02  1.4707E+02 -4.0771E+01
    170  5.1697E+00  2.9715E+00  1.5577E+00 -2.0734E+00 -1.0782E+00 -5.7842E-01  2.3238E+02 -1.0076E+02 -6.2761E+02
    183  3.8762E+00 -8.1836E+00 -5.2186E+00 -4.1135E-01  4.7147E-01  3.5130E-01 -8.6019E-01 -4.3237E+00  7.7973E+01
    196  9.3622E+00  8.7950E+00 -5.8684E+00  7.4704E-02 -9.7111E-01 -6.9265E-01 -2.5458E+02 -2.5590E+01  6.3517E+02
    209 -6.1377E+00  2.2481E+00  7.7985E+00  1.0881E+00  1.4432E+00  2.3087E+00  2.4525E+02  9.7924E+01 -3.4903E+02
    222  8.3088E-01  4.0031E+00  6.1811E+00  3.4520E-01  2.2536E-01 -2.2475E+00  5.4597E+01  1.8644E+01 -1.2860E+02
    235  8.2421E+00 -7.8999E+00 -6.2079E+00 -7.9274E-02  5.3017E-01 -7.9479E-01  1.5321E+02  3.0233E+02  7.5529E+02
    248 -1.0312E+01  2.9875E+00  1.0317E+00  6.0980E-01 -1.5147E+00  2.4518E+00 -6.5786E+01  6.6967E+01  3.7380E+02


long range correction for: vdw energy    -0.139210E+05
                         : vdw pressure  -0.316402E+00

 time elapsed since job start =           0.004 seconds

 ------------------------------------------------------------------------------------------------------------------------

     step     eng_tot    temp_tot     eng_cfg     eng_vdw     eng_cou     eng_bnd     eng_ang     eng_dih     eng_tet
 time          eng_pv    temp_rot     vir_cfg     vir_vdw     vir_cou     vir_bnd     vir_ang     vir_con     vir_tet
 cpu time      volume    temp_shl     eng_shl     vir_shl       alpha        beta       gamma     vir_pmf       press

 ------------------------------------------------------------------------------------------------------------------------
        1 -1.5115E+05  8.6501E+01 -1.8424E+05 -1.8424E+05  0.0000E+00  0.0000E+00  0.0000E+00  0.0000E+00  0.0000E+00
   1.000f -1.3160E+05  0.0000E+00  7.5016E+03  7.5016E+03  0.0000E+00  0.0000E+00  0.0000E+00  0.0000E+00  0.0000E+00
   0.006s  1.1974E+04  0.0000E+00  0.0000E+00  0.0000E+00  9.0000E+01  9.0000E+01  9.0000E+01  0.0000E+00  2.2256E-01

  rolling -1.5115E+05  8.6501E+01 -1.8424E+05 -1.8424E+05  0.0000E+00  0.0000E+00  0.0000E+00  0.0000E+00  0.0000E+00
 averages -1.3160E+05  0.0000E+00  7.5016E+03  7.5016E+03  0.0000E+00  0.0000E+00  0.0000E+00  0.0000E+00  0.0000E+00
           1.1974E+04  0.0000E+00  0.0000E+00  0.0000E+00  9.0000E+01  9.0000E+01  9.0000E+01  0.0000E+00  2.2256E-01
 ------------------------------------------------------------------------------------------------------------------------
      100 -1.5034E+05  8.7481E+01 -1.8380E+05 -1.8380E+05  0.0000E+00  0.0000E+00  0.0000E+00  0.0000E+00  0.0000E+00
 100.000f -1.2733E+05  0.0000E+00 -2.1013E+03 -2.1013E+03  0.0000E+00  0.0000E+00  0.0000E+00  0.0000E+00  0.0000E+00
   0.087s  1.1974E+04  0.0000E+00  0.0000E+00  0.0000E+00  9.0000E+01  9.0000E+01  9.0000E+01  0.0000E+00  2.6183E-01

  rolling -1.5015E+05  8.6488E+01 -1.8323E+05 -1.8323E+05  0.0000E+00  0.0000E+00  0.0000E+00  0.0000E+00  0.0000E+00
 averages -1.2495E+05  0.0000E+00 -9.4307E+03 -9.4307E+03  0.0000E+00  0.0000E+00  0.0000E+00  0.0000E+00  0.0000E+00
           1.1974E+04  0.0000E+00  0.0000E+00  0.0000E+00  9.0000E+01  9.0000E+01  9.0000E+01  0.0000E+00  2.8675E-01
 ------------------------------------------------------------------------------------------------------------------------
      200 -1.5284E+05  8.7053E+01 -1.8613E+05 -1.8613E+05  0.0000E+00  0.0000E+00  0.0000E+00  0.0000E+00  0.0000E+00
 200.000f -1.4287E+05  0.0000E+00  3.6698E+04  3.6698E+04  0.0000E+00  0.0000E+00  0.0000E+00  0.0000E+00  0.0000E+00
   0.170s  1.1974E+04  0.0000E+00  0.0000E+00  0.0000E+00  9.0000E+01  9.0000E+01  9.0000E+01  0.0000E+00  1.1341E-01

  rolling -1.5194E+05  8.6877E+01 -1.8517E+05 -1.8517E+05  0.0000E+00  0.0000E+00  0.0000E+00  0.0000E+00  0.0000E+00
 averages -1.3638E+05  0.0000E+00  1.9794E+04  1.9794E+04  0.0000E+00  0.0000E+00  0.0000E+00  0.0000E+00  0.0000E+00
           1.1974E+04  0.0000E+00  0.0000E+00  0.0000E+00  9.0000E+01  9.0000E+01  9.0000E+01  0.0000E+00  1.7702E-01
 ------------------------------------------------------------------------------------------------------------------------
      300 -1.5455E+05  8.6041E+01 -1.8746E+05 -1.8746E+05  0.0000E+00  0.0000E+00  0.0000E+00  0.0000E+00  0.0000E+00
 300.000f -1.5181E+05  0.0000E+00  5.7600E+04  5.7600E+04  0.0000E+00  0.0000E+00  0.0000E+00  0.0000E+00  0.0000E+00
   0.252s  1.1974E+04  0.0000E+00  0.0000E+00  0.0000E+00  9.0000E+01  9.0000E+01  9.0000E+01  0.0000E+00  3.1186E-02

  rolling -1.5404E+05  8.6743E+01 -1.8722E+05 -1.8722E+05  0.0000E+00  0.0000E+00  0.0000E+00  0.0000E+00  0.0000E+00
 averages -1.4995E+05  0.0000E+00  5.4104E+04  5.4104E+04  0.0000E+00  0.0000E+00  0.0000E+00  0.0000E+00  0.0000E+00
           1.1974E+04  0.0000E+00  0.0000E+00  0.0000E+00  9.0000E+01  9.0000E+01  9.0000E+01  0.0000E+00  4.6485E-02
 ------------------------------------------------------------------------------------------------------------------------
      400 -1.5084E+05  8.6036E+01 -1.8375E+05 -1.8375E+05  0.0000E+00  0.0000E+00  0.0000E+00  0.0000E+00  0.0000E+00
 400.000f -1.2806E+05  0.0000E+00 -2.5219E+03 -2.5219E+03  0.0000E+00  0.0000E+00  0.0000E+00  0.0000E+00  0.0000E+00
   0.338s  1.1974E+04  0.0000E+00  0.0000E+00  0.0000E+00  9.0000E+01  9.0000E+01  9.0000E+01  0.0000E+00  2.5923E-01

  rolling -1.5261E+05  8.6064E+01 -1.8553E+05 -1.8553E+05  0.0000E+00  0.0000E+00  0.0000E+00  0.0000E+00  0.0000E+00
 averages -1.3941E+05  0.0000E+00  2.6238E+04  2.6238E+04  0.0000E+00  0.0000E+00  0.0000E+00  0.0000E+00  0.0000E+00
           1.1974E+04  0.0000E+00  0.0000E+00  0.0000E+00  9.0000E+01  9.0000E+01  9.0000E+01  0.0000E+00  1.5022E-01
 ------------------------------------------------------------------------------------------------------------------------
      500 -1.5317E+05  8.7472E+01 -1.8662E+05 -1.8662E+05  0.0000E+00  0.0000E+00  0.0000E+00  0.0000E+00  0.0000E+00
 500.000f -1.4447E+05  0.0000E+00  4.0816E+04  4.0816E+04  0.0000E+00  0.0000E+00  0.0000E+00  0.0000E+00  0.0000E+00
   0.423s  1.1974E+04  0.0000E+00  0.0000E+00  0.0000E+00  9.0000E+01  9.0000E+01  9.0000E+01  0.0000E+00  9.9008E-02

  rolling -1.5152E+05  8.6924E+01 -1.8476E+05 -1.8476E+05  0.0000E+00  0.0000E+00  0.0000E+00  0.0000E+00  0.0000E+00
 averages -1.3337E+05  0.0000E+00  1.2052E+04  1.2052E+04  0.0000E+00  0.0000E+00  0.0000E+00  0.0000E+00  0.0000E+00
           1.1974E+04  0.0000E+00  0.0000E+00  0.0000E+00  9.0000E+01  9.0000E+01  9.0000E+01  0.0000E+00  2.0652E-01
 ------------------------------------------------------------------------------------------------------------------------
      600 -1.5350E+05  8.5983E+01 -1.8639E+05 -1.8639E+05  0.0000E+00  0.0000E+00  0.0000E+00  0.0000E+00  0.0000E+00
 600.000f -1.4554E+05  0.0000E+00  4.1904E+04  4.1904E+04  0.0000E+00  0.0000E+00  0.0000E+00  0.0000E+00  0.0000E+00
   0.509s  1.1974E+04  0.0000E+00  0.0000E+00  0.0000E+00  9.0000E+01  9.0000E+01  9.0000E+01  0.0000E+00  9.0556E-02

  rolling -1.5395E+05  8.6535E+01 -1.8705E+05 -1.8705E+05  0.0000E+00  0.0000E+00  0.0000E+00  0.0000E+00  0.0000E+00
 averages -1.4833E+05  0.0000E+00  4.9362E+04  4.9362E+04  0.0000E+00  0.0000E+00  0.0000E+00  0.0000E+00  0.0000E+00
           1.1974E+04  0.0000E+00  0.0000E+00  0.0000E+00  9.0000E+01  9.0000E+01  9.0000E+01  0.0000E+00  6.3868E-02
 ------------------------------------------------------------------------------------------------------------------------
      700 -1.5287E+05  8.7041E+01 -1.8616E+05 -1.8616E+05  0.0000E+00  0.0000E+00  0.0000E+00  0.0000E+00  0.0000E+00
 700.000f -1.4534E+05  0.0000E+00  4.3998E+04  4.3998E+04  0.0000E+00  0.0000E+00  0.0000E+00  0.0000E+00  0.0000E+00
   0.594s  1.1974E+04  0.0000E+00  0.0000E+00  0.0000E+00  9.0000E+01  9.0000E+01  9.0000E+01  0.0000E+00  8.5683E-02

  rolling -1.5278E+05  8.6524E+01 -1.8587E+05 -1.8587E+05  0.0000E+00  0.0000E+00  0.0000E+00  0.0000E+00  0.0000E+00
 averages -1.4307E+05  0.0000E+00  3.7057E+04  3.7057E+04  0.0000E+00  0.0000E+00  0.0000E+00  0.0000E+00  0.0000E+00
           1.1974E+04  0.0000E+00  0.0000E+00  0.0000E+00  9.0000E+01  9.0000E+01  9.0000E+01  0.0000E+00  1.1051E-01
 ------------------------------------------------------------------------------------------------------------------------
 ------------------------------------------------------------------------------------------------------------------------

     step     eng_tot    temp_tot     eng_cfg     eng_vdw     eng_cou     eng_bnd     eng_ang     eng_dih     eng_tet
 time          eng_pv    temp_rot     vir_cfg     vir_vdw     vir_cou     vir_bnd     vir_ang     vir_con     vir_tet
 cpu time      volume    temp_shl     eng_shl     vir_shl       alpha        beta       gamma     vir_pmf       press

 ------------------------------------------------------------------------------------------------------------------------
      800 -1.5388E+05  8.6380E+01 -1.8692E+05 -1.8692E+05  0.0000E+00  0.0000E+00  0.0000E+00  0.0000E+00  0.0000E+00
 800.000f -1.5041E+05  0.0000E+00  5.5675E+04  5.5675E+04  0.0000E+00  0.0000E+00  0.0000E+00  0.0000E+00  0.0000E+00
   0.680s  1.1974E+04  0.0000E+00  0.0000E+00  0.0000E+00  9.0000E+01  9.0000E+01  9.0000E+01  0.0000E+00  3.9473E-02

  rolling -1.5370E+05  8.6665E+01 -1.8685E+05 -1.8685E+05  0.0000E+00  0.0000E+00  0.0000E+00  0.0000E+00  0.0000E+00
 averages -1.4991E+05  0.0000E+00  5.4914E+04  5.4914E+04  0.0000E+00  0.0000E+00  0.0000E+00  0.0000E+00  0.0000E+00
           1.1974E+04  0.0000E+00  0.0000E+00  0.0000E+00  9.0000E+01  9.0000E+01  9.0000E+01  0.0000E+00  4.3185E-02
 ------------------------------------------------------------------------------------------------------------------------
      900 -1.5326E+05  8.6745E+01 -1.8644E+05 -1.8644E+05  0.0000E+00  0.0000E+00  0.0000E+00  0.0000E+00  0.0000E+00
 900.000f -1.4601E+05  0.0000E+00  4.4595E+04  4.4595E+04  0.0000E+00  0.0000E+00  0.0000E+00  0.0000E+00  0.0000E+00
   0.765s  1.1974E+04  0.0000E+00  0.0000E+00  0.0000E+00  9.0000E+01  9.0000E+01  9.0000E+01  0.0000E+00  8.2561E-02

  rolling -1.5348E+05  8.6498E+01 -1.8656E+05 -1.8656E+05  0.0000E+00  0.0000E+00  0.0000E+00  0.0000E+00  0.0000E+00
 averages -1.4752E+05  0.0000E+00  4.8298E+04  4.8298E+04  0.0000E+00  0.0000E+00  0.0000E+00  0.0000E+00  0.0000E+00
           1.1974E+04  0.0000E+00  0.0000E+00  0.0000E+00  9.0000E+01  9.0000E+01  9.0000E+01  0.0000E+00  6.7797E-02
 ------------------------------------------------------------------------------------------------------------------------
     1000 -1.5494E+05  8.6414E+01 -1.8799E+05 -1.8799E+05  0.0000E+00  0.0000E+00  0.0000E+00  0.0000E+00  0.0000E+00
   1.000p -1.5385E+05  0.0000E+00  6.2844E+04  6.2844E+04  0.0000E+00  0.0000E+00  0.0000E+00  0.0000E+00  0.0000E+00
   0.851s  1.1974E+04  0.0000E+00  0.0000E+00  0.0000E+00  9.0000E+01  9.0000E+01  9.0000E+01  0.0000E+00  1.2376E-02

  rolling -1.5424E+05  8.6767E+01 -1.8743E+05 -1.8743E+05  0.0000E+00  0.0000E+00  0.0000E+00  0.0000E+00  0.0000E+00
 averages -1.5108E+05  0.0000E+00  5.6910E+04  5.6910E+04  0.0000E+00  0.0000E+00  0.0000E+00  0.0000E+00  0.0000E+00
           1.1974E+04  0.0000E+00  0.0000E+00  0.0000E+00  9.0000E+01  9.0000E+01  9.0000E+01  0.0000E+00  3.5910E-02
 ------------------------------------------------------------------------------------------------------------------------
     1100 -1.5309E+05  8.6032E+01 -1.8600E+05 -1.8600E+05  0.0000E+00  0.0000E+00  0.0000E+00  0.0000E+00  0.0000E+00
   1.100p -1.4140E+05  0.0000E+00  3.0746E+04  3.0746E+04  0.0000E+00  0.0000E+00  0.0000E+00  0.0000E+00  0.0000E+00
   0.941s  1.1974E+04  0.0000E+00  0.0000E+00  0.0000E+00  9.0000E+01  9.0000E+01  9.0000E+01  0.0000E+00  1.3302E-01

  rolling -1.5406E+05  8.6292E+01 -1.8706E+05 -1.8706E+05  0.0000E+00  0.0000E+00  0.0000E+00  0.0000E+00  0.0000E+00
 averages -1.4776E+05  0.0000E+00  4.7135E+04  4.7135E+04  0.0000E+00  0.0000E+00  0.0000E+00  0.0000E+00  0.0000E+00
           1.1974E+04  0.0000E+00  0.0000E+00  0.0000E+00  9.0000E+01  9.0000E+01  9.0000E+01  0.0000E+00  7.1611E-02
 ------------------------------------------------------------------------------------------------------------------------
     1200 -1.5359E+05  8.7362E+01 -1.8701E+05 -1.8701E+05  0.0000E+00  0.0000E+00  0.0000E+00  0.0000E+00  0.0000E+00
   1.200p -1.4878E+05  0.0000E+00  5.2402E+04  5.2402E+04  0.0000E+00  0.0000E+00  0.0000E+00  0.0000E+00  0.0000E+00
   1.027s  1.1974E+04  0.0000E+00  0.0000E+00  0.0000E+00  9.0000E+01  9.0000E+01  9.0000E+01  0.0000E+00  5.4737E-02

  rolling -1.5278E+05  8.6682E+01 -1.8593E+05 -1.8593E+05  0.0000E+00  0.0000E+00  0.0000E+00  0.0000E+00  0.0000E+00
 averages -1.4163E+05  0.0000E+00  3.2853E+04  3.2853E+04  0.0000E+00  0.0000E+00  0.0000E+00  0.0000E+00  0.0000E+00
           1.1974E+04  0.0000E+00  0.0000E+00  0.0000E+00  9.0000E+01  9.0000E+01  9.0000E+01  0.0000E+00  1.2692E-01
 ------------------------------------------------------------------------------------------------------------------------
     1300 -1.5507E+05  8.6864E+01 -1.8829E+05 -1.8829E+05  0.0000E+00  0.0000E+00  0.0000E+00  0.0000E+00  0.0000E+00
   1.300p -1.5798E+05  0.0000E+00  7.5192E+04  7.5192E+04  0.0000E+00  0.0000E+00  0.0000E+00  0.0000E+00  0.0000E+00
   1.111s  1.1974E+04  0.0000E+00  0.0000E+00  0.0000E+00  9.0000E+01  9.0000E+01  9.0000E+01  0.0000E+00 -3.3157E-02

  rolling -1.5464E+05  8.6726E+01 -1.8781E+05 -1.8781E+05  0.0000E+00  0.0000E+00  0.0000E+00  0.0000E+00  0.0000E+00
 averages -1.5480E+05  0.0000E+00  6.6817E+04  6.6817E+04  0.0000E+00  0.0000E+00  0.0000E+00  0.0000E+00  0.0000E+00
           1.1974E+04  0.0000E+00  0.0000E+00  0.0000E+00  9.0000E+01  9.0000E+01  9.0000E+01  0.0000E+00 -1.7914E-03
 ------------------------------------------------------------------------------------------------------------------------
     1400 -1.5579E+05  8.6215E+01 -1.8877E+05 -1.8877E+05  0.0000E+00  0.0000E+00  0.0000E+00  0.0000E+00  0.0000E+00
   1.400p -1.6092E+05  0.0000E+00  8.1346E+04  8.1346E+04  0.0000E+00  0.0000E+00  0.0000E+00  0.0000E+00  0.0000E+00
   1.197s  1.1974E+04  0.0000E+00  0.0000E+00  0.0000E+00  9.0000E+01  9.0000E+01  9.0000E+01  0.0000E+00 -5.8385E-02

  rolling -1.5563E+05  8.6630E+01 -1.8877E+05 -1.8877E+05  0.0000E+00  0.0000E+00  0.0000E+00  0.0000E+00  0.0000E+00
 averages -1.6082E+05  0.0000E+00  8.1856E+04  8.1856E+04  0.0000E+00  0.0000E+00  0.0000E+00  0.0000E+00  0.0000E+00
           1.1974E+04  0.0000E+00  0.0000E+00  0.0000E+00  9.0000E+01  9.0000E+01  9.0000E+01  0.0000E+00 -5.9115E-02
 ------------------------------------------------------------------------------------------------------------------------
     1500 -1.5332E+05  8.6376E+01 -1.8636E+05 -1.8636E+05  0.0000E+00  0.0000E+00  0.0000E+00  0.0000E+00  0.0000E+00
   1.500p -1.4636E+05  0.0000E+00  4.5184E+04  4.5184E+04  0.0000E+00  0.0000E+00  0.0000E+00  0.0000E+00  0.0000E+00
   1.283s  1.1974E+04  0.0000E+00  0.0000E+00  0.0000E+00  9.0000E+01  9.0000E+01  9.0000E+01  0.0000E+00  7.9255E-02

  rolling -1.5440E+05  8.6238E+01 -1.8739E+05 -1.8739E+05  0.0000E+00  0.0000E+00  0.0000E+00  0.0000E+00  0.0000E+00
 averages -1.5267E+05  0.0000E+00  6.0772E+04  6.0772E+04  0.0000E+00  0.0000E+00  0.0000E+00  0.0000E+00  0.0000E+00
           1.1974E+04  0.0000E+00  0.0000E+00  0.0000E+00  9.0000E+01  9.0000E+01  9.0000E+01  0.0000E+00  1.9723E-02
 ------------------------------------------------------------------------------------------------------------------------
 ------------------------------------------------------------------------------------------------------------------------

     step     eng_tot    temp_tot     eng_cfg     eng_vdw     eng_cou     eng_bnd     eng_ang     eng_dih     eng_tet
 time          eng_pv    temp_rot     vir_cfg     vir_vdw     vir_cou     vir_bnd     vir_ang     vir_con     vir_tet
 cpu time      volume    temp_shl     eng_shl     vir_shl       alpha        beta       gamma     vir_pmf       press

 ------------------------------------------------------------------------------------------------------------------------
     1600 -1.5409E+05  8.6931E+01 -1.8734E+05 -1.8734E+05  0.0000E+00  0.0000E+00  0.0000E+00  0.0000E+00  0.0000E+00
   1.600p -1.5114E+05  0.0000E+00  5.7669E+04  5.7669E+04  0.0000E+00  0.0000E+00  0.0000E+00  0.0000E+00  0.0000E+00
   1.368s  1.1974E+04  0.0000E+00  0.0000E+00  0.0000E+00  9.0000E+01  9.0000E+01  9.0000E+01  0.0000E+00  3.3507E-02

  rolling -1.5353E+05  8.6686E+01 -1.8669E+05 -1.8669E+05  0.0000E+00  0.0000E+00  0.0000E+00  0.0000E+00  0.0000E+00
 averages -1.4785E+05  0.0000E+00  4.9252E+04  4.9252E+04  0.0000E+00  0.0000E+00  0.0000E+00  0.0000E+00  0.0000E+00
           1.1974E+04  0.0000E+00  0.0000E+00  0.0000E+00  9.0000E+01  9.0000E+01  9.0000E+01  0.0000E+00  6.4723E-02
 ------------------------------------------------------------------------------------------------------------------------
     1700 -1.5402E+05  8.6033E+01 -1.8692E+05 -1.8692E+05  0.0000E+00  0.0000E+00  0.0000E+00  0.0000E+00  0.0000E+00
   1.700p -1.4709E+05  0.0000E+00  4.5036E+04  4.5036E+04  0.0000E+00  0.0000E+00  0.0000E+00  0.0000E+00  0.0000E+00
   1.454s  1.1974E+04  0.0000E+00  0.0000E+00  0.0000E+00  9.0000E+01  9.0000E+01  9.0000E+01  0.0000E+00  7.8823E-02

  rolling -1.5437E+05  8.6507E+01 -1.8746E+05 -1.8746E+05  0.0000E+00  0.0000E+00  0.0000E+00  0.0000E+00  0.0000E+00
 averages -1.5124E+05  0.0000E+00  5.6794E+04  5.6794E+04  0.0000E+00  0.0000E+00  0.0000E+00  0.0000E+00  0.0000E+00
           1.1974E+04  0.0000E+00  0.0000E+00  0.0000E+00  9.0000E+01  9.0000E+01  9.0000E+01  0.0000E+00  3.5597E-02
 ------------------------------------------------------------------------------------------------------------------------
     1800 -1.5301E+05  8.6829E+01 -1.8622E+05 -1.8622E+05  0.0000E+00  0.0000E+00  0.0000E+00  0.0000E+00  0.0000E+00
   1.800p -1.3868E+05  0.0000E+00  2.3420E+04  2.3420E+04  0.0000E+00  0.0000E+00  0.0000E+00  0.0000E+00  0.0000E+00
   1.539s  1.1974E+04  0.0000E+00  0.0000E+00  0.0000E+00  9.0000E+01  9.0000E+01  9.0000E+01  0.0000E+00  1.6312E-01

  rolling -1.5311E+05  8.6462E+01 -1.8618E+05 -1.8618E+05  0.0000E+00  0.0000E+00  0.0000E+00  0.0000E+00  0.0000E+00
 averages -1.4053E+05  0.0000E+00  2.8416E+04  2.8416E+04  0.0000E+00  0.0000E+00  0.0000E+00  0.0000E+00  0.0000E+00
           1.1974E+04  0.0000E+00  0.0000E+00  0.0000E+00  9.0000E+01  9.0000E+01  9.0000E+01  0.0000E+00  1.4311E-01
 ------------------------------------------------------------------------------------------------------------------------
     1900 -1.5303E+05  8.6584E+01 -1.8615E+05 -1.8615E+05  0.0000E+00  0.0000E+00  0.0000E+00  0.0000E+00  0.0000E+00
   1.900p -1.3740E+05  0.0000E+00  1.9361E+04  1.9361E+04  0.0000E+00  0.0000E+00  0.0000E+00  0.0000E+00  0.0000E+00
   1.625s  1.1974E+04  0.0000E+00  0.0000E+00  0.0000E+00  9.0000E+01  9.0000E+01  9.0000E+01  0.0000E+00  1.7781E-01

  rolling -1.5318E+05  8.6553E+01 -1.8629E+05 -1.8629E+05  0.0000E+00  0.0000E+00  0.0000E+00  0.0000E+00  0.0000E+00
 averages -1.3847E+05  0.0000E+00  2.2084E+04  2.2084E+04  0.0000E+00  0.0000E+00  0.0000E+00  0.0000E+00  0.0000E+00
           1.1974E+04  0.0000E+00  0.0000E+00  0.0000E+00  9.0000E+01  9.0000E+01  9.0000E+01  0.0000E+00  1.6739E-01
 ------------------------------------------------------------------------------------------------------------------------
     2000 -1.5346E+05  8.6349E+01 -1.8648E+05 -1.8648E+05  0.0000E+00  0.0000E+00  0.0000E+00  0.0000E+00  0.0000E+00
   2.000p -1.4035E+05  0.0000E+00  2.6731E+04  2.6731E+04  0.0000E+00  0.0000E+00  0.0000E+00  0.0000E+00  0.0000E+00
   1.708s  1.1974E+04  0.0000E+00  0.0000E+00  0.0000E+00  9.0000E+01  9.0000E+01  9.0000E+01  0.0000E+00  1.4918E-01

  rolling -1.5334E+05  8.6608E+01 -1.8647E+05 -1.8647E+05  0.0000E+00  0.0000E+00  0.0000E+00  0.0000E+00  0.0000E+00
 averages -1.3967E+05  0.0000E+00  2.5228E+04  2.5228E+04  0.0000E+00  0.0000E+00  0.0000E+00  0.0000E+00  0.0000E+00
           1.1974E+04  0.0000E+00  0.0000E+00  0.0000E+00  9.0000E+01  9.0000E+01  9.0000E+01  0.0000E+00  1.5563E-01
 ------------------------------------------------------------------------------------------------------------------------
     2100 -1.5209E+05  8.6113E+01 -1.8502E+05 -1.8502E+05  0.0000E+00  0.0000E+00  0.0000E+00  0.0000E+00  0.0000E+00
   2.100p -1.3257E+05  0.0000E+00  7.3453E+03  7.3453E+03  0.0000E+00  0.0000E+00  0.0000E+00  0.0000E+00  0.0000E+00
   1.794s  1.1974E+04  0.0000E+00  0.0000E+00  0.0000E+00  9.0000E+01  9.0000E+01  9.0000E+01  0.0000E+00  2.2203E-01

  rolling -1.5277E+05  8.6371E+01 -1.8581E+05 -1.8581E+05  0.0000E+00  0.0000E+00  0.0000E+00  0.0000E+00  0.0000E+00
 averages -1.3667E+05  0.0000E+00  1.7768E+04  1.7768E+04  0.0000E+00  0.0000E+00  0.0000E+00  0.0000E+00  0.0000E+00
           1.1974E+04  0.0000E+00  0.0000E+00  0.0000E+00  9.0000E+01  9.0000E+01  9.0000E+01  0.0000E+00  1.8324E-01
 ------------------------------------------------------------------------------------------------------------------------
     2200 -1.5199E+05  8.7298E+01 -1.8538E+05 -1.8538E+05  0.0000E+00  0.0000E+00  0.0000E+00  0.0000E+00  0.0000E+00
   2.200p -1.3526E+05  0.0000E+00  1.6597E+04  1.6597E+04  0.0000E+00  0.0000E+00  0.0000E+00  0.0000E+00  0.0000E+00
   1.876s  1.1974E+04  0.0000E+00  0.0000E+00  0.0000E+00  9.0000E+01  9.0000E+01  9.0000E+01  0.0000E+00  1.9037E-01

  rolling -1.5158E+05  8.6590E+01 -1.8470E+05 -1.8470E+05  0.0000E+00  0.0000E+00  0.0000E+00  0.0000E+00  0.0000E+00
 averages -1.3099E+05  0.0000E+00  4.4568E+03  4.4568E+03  0.0000E+00  0.0000E+00  0.0000E+00  0.0000E+00  0.0000E+00
           1.1974E+04  0.0000E+00  0.0000E+00  0.0000E+00  9.0000E+01  9.0000E+01  9.0000E+01  0.0000E+00  2.3437E-01
 ------------------------------------------------------------------------------------------------------------------------
     2300 -1.5392E+05  8.6957E+01 -1.8718E+05 -1.8718E+05  0.0000E+00  0.0000E+00  0.0000E+00  0.0000E+00  0.0000E+00
   2.300p -1.4828E+05  0.0000E+00  4.9605E+04  4.9605E+04  0.0000E+00  0.0000E+00  0.0000E+00  0.0000E+00  0.0000E+00
   1.958s  1.1974E+04  0.0000E+00  0.0000E+00  0.0000E+00  9.0000E+01  9.0000E+01  9.0000E+01  0.0000E+00  6.4172E-02

  rolling -1.5321E+05  8.6800E+01 -1.8641E+05 -1.8641E+05  0.0000E+00  0.0000E+00  0.0000E+00  0.0000E+00  0.0000E+00
 averages -1.4270E+05  0.0000E+00  3.4869E+04  3.4869E+04  0.0000E+00  0.0000E+00  0.0000E+00  0.0000E+00  0.0000E+00
           1.1974E+04  0.0000E+00  0.0000E+00  0.0000E+00  9.0000E+01  9.0000E+01  9.0000E+01  0.0000E+00  1.1962E-01
 ------------------------------------------------------------------------------------------------------------------------
 ------------------------------------------------------------------------------------------------------------------------

     step     eng_tot    temp_tot     eng_cfg     eng_vdw     eng_cou     eng_bnd     eng_ang     eng_dih     eng_tet
 time          eng_pv    temp_rot     vir_cfg     vir_vdw     vir_cou     vir_bnd     vir_ang     vir_con     vir_tet
 cpu time      volume    temp_shl     eng_shl     vir_shl       alpha        beta       gamma     vir_pmf       press

 ------------------------------------------------------------------------------------------------------------------------
     2400 -1.5383E+05  8.6047E+01 -1.8674E+05 -1.8674E+05  0.0000E+00  0.0000E+00  0.0000E+00  0.0000E+00  0.0000E+00
   2.400p -1.4724E+05  0.0000E+00  4.6054E+04  4.6054E+04  0.0000E+00  0.0000E+00  0.0000E+00  0.0000E+00  0.0000E+00
   2.039s  1.1974E+04  0.0000E+00  0.0000E+00  0.0000E+00  9.0000E+01  9.0000E+01  9.0000E+01  0.0000E+00  7.5002E-02

  rolling -1.5419E+05  8.6506E+01 -1.8728E+05 -1.8728E+05  0.0000E+00  0.0000E+00  0.0000E+00  0.0000E+00  0.0000E+00
 averages -1.4982E+05  0.0000E+00  5.3063E+04  5.3063E+04  0.0000E+00  0.0000E+00  0.0000E+00  0.0000E+00  0.0000E+00
           1.1974E+04  0.0000E+00  0.0000E+00  0.0000E+00  9.0000E+01  9.0000E+01  9.0000E+01  0.0000E+00  4.9747E-02
 ------------------------------------------------------------------------------------------------------------------------
     2500 -1.5162E+05  8.6326E+01 -1.8464E+05 -1.8464E+05  0.0000E+00  0.0000E+00  0.0000E+00  0.0000E+00  0.0000E+00
   2.500p -1.3444E+05  0.0000E+00  1.4510E+04  1.4510E+04  0.0000E+00  0.0000E+00  0.0000E+00  0.0000E+00  0.0000E+00
   2.121s  1.1974E+04  0.0000E+00  0.0000E+00  0.0000E+00  9.0000E+01  9.0000E+01  9.0000E+01  0.0000E+00  1.9547E-01

  rolling -1.5256E+05  8.6286E+01 -1.8556E+05 -1.8556E+05  0.0000E+00  0.0000E+00  0.0000E+00  0.0000E+00  0.0000E+00
 averages -1.4004E+05  0.0000E+00  2.8452E+04  2.8452E+04  0.0000E+00  0.0000E+00  0.0000E+00  0.0000E+00  0.0000E+00
           1.1974E+04  0.0000E+00  0.0000E+00  0.0000E+00  9.0000E+01  9.0000E+01  9.0000E+01  0.0000E+00  1.4247E-01
 ------------------------------------------------------------------------------------------------------------------------
     2600 -1.5167E+05  8.6693E+01 -1.8483E+05 -1.8483E+05  0.0000E+00  0.0000E+00  0.0000E+00  0.0000E+00  0.0000E+00
   2.600p -1.3502E+05  0.0000E+00  1.6368E+04  1.6368E+04  0.0000E+00  0.0000E+00  0.0000E+00  0.0000E+00  0.0000E+00
   2.202s  1.1974E+04  0.0000E+00  0.0000E+00  0.0000E+00  9.0000E+01  9.0000E+01  9.0000E+01  0.0000E+00  1.8949E-01

  rolling -1.5149E+05  8.6580E+01 -1.8461E+05 -1.8461E+05  0.0000E+00  0.0000E+00  0.0000E+00  0.0000E+00  0.0000E+00
 averages -1.3392E+05  0.0000E+00  1.3511E+04  1.3511E+04  0.0000E+00  0.0000E+00  0.0000E+00  0.0000E+00  0.0000E+00
           1.1974E+04  0.0000E+00  0.0000E+00  0.0000E+00  9.0000E+01  9.0000E+01  9.0000E+01  0.0000E+00  1.9999E-01
 ------------------------------------------------------------------------------------------------------------------------
     2700 -1.5235E+05  8.6637E+01 -1.8549E+05 -1.8549E+05  0.0000E+00  0.0000E+00  0.0000E+00  0.0000E+00  0.0000E+00
   2.700p -1.3979E+05  0.0000E+00  2.8590E+04  2.8590E+04  0.0000E+00  0.0000E+00  0.0000E+00  0.0000E+00  0.0000E+00
   2.283s  1.1974E+04  0.0000E+00  0.0000E+00  0.0000E+00  9.0000E+01  9.0000E+01  9.0000E+01  0.0000E+00  1.4296E-01

  rolling -1.5203E+05  8.6645E+01 -1.8517E+05 -1.8517E+05  0.0000E+00  0.0000E+00  0.0000E+00  0.0000E+00  0.0000E+00
 averages -1.3745E+05  0.0000E+00  2.2539E+04  2.2539E+04  0.0000E+00  0.0000E+00  0.0000E+00  0.0000E+00  0.0000E+00
           1.1974E+04  0.0000E+00  0.0000E+00  0.0000E+00  9.0000E+01  9.0000E+01  9.0000E+01  0.0000E+00  1.6594E-01
 ------------------------------------------------------------------------------------------------------------------------
     2800 -1.5194E+05  8.6442E+01 -1.8500E+05 -1.8500E+05  0.0000E+00  0.0000E+00  0.0000E+00  0.0000E+00  0.0000E+00
   2.800p -1.3621E+05  0.0000E+00  1.8951E+04  1.8951E+04  0.0000E+00  0.0000E+00  0.0000E+00  0.0000E+00  0.0000E+00
   2.364s  1.1974E+04  0.0000E+00  0.0000E+00  0.0000E+00  9.0000E+01  9.0000E+01  9.0000E+01  0.0000E+00  1.7896E-01

  rolling -1.5222E+05  8.6486E+01 -1.8530E+05 -1.8530E+05  0.0000E+00  0.0000E+00  0.0000E+00  0.0000E+00  0.0000E+00
 averages -1.3859E+05  0.0000E+00  2.5291E+04  2.5291E+04  0.0000E+00  0.0000E+00  0.0000E+00  0.0000E+00  0.0000E+00
           1.1974E+04  0.0000E+00  0.0000E+00  0.0000E+00  9.0000E+01  9.0000E+01  9.0000E+01  0.0000E+00  1.5504E-01
 ------------------------------------------------------------------------------------------------------------------------
     2900 -1.5075E+05  8.5895E+01 -1.8360E+05 -1.8360E+05  0.0000E+00  0.0000E+00  0.0000E+00  0.0000E+00  0.0000E+00
   2.900p -1.2702E+05  0.0000E+00 -5.4836E+03 -5.4836E+03  0.0000E+00  0.0000E+00  0.0000E+00  0.0000E+00  0.0000E+00
   2.446s  1.1974E+04  0.0000E+00  0.0000E+00  0.0000E+00  9.0000E+01  9.0000E+01  9.0000E+01  0.0000E+00  2.7006E-01

  rolling -1.5147E+05  8.6387E+01 -1.8451E+05 -1.8451E+05  0.0000E+00  0.0000E+00  0.0000E+00  0.0000E+00  0.0000E+00
 averages -1.3254E+05  0.0000E+00  9.2861E+03  9.2861E+03  0.0000E+00  0.0000E+00  0.0000E+00  0.0000E+00  0.0000E+00
           1.1974E+04  0.0000E+00  0.0000E+00  0.0000E+00  9.0000E+01  9.0000E+01  9.0000E+01  0.0000E+00  2.1546E-01
 ------------------------------------------------------------------------------------------------------------------------
     3000 -1.5097E+05  8.7348E+01 -1.8438E+05 -1.8438E+05  0.0000E+00  0.0000E+00  0.0000E+00  0.0000E+00  0.0000E+00
   3.000p -1.3137E+05  0.0000E+00  8.0092E+03  8.0092E+03  0.0000E+00  0.0000E+00  0.0000E+00  0.0000E+00  0.0000E+00
   2.528s  1.1974E+04  0.0000E+00  0.0000E+00  0.0000E+00  9.0000E+01  9.0000E+01  9.0000E+01  0.0000E+00  2.2309E-01

  rolling -1.5019E+05  8.6649E+01 -1.8333E+05 -1.8333E+05  0.0000E+00  0.0000E+00  0.0000E+00  0.0000E+00  0.0000E+00
 averages -1.2525E+05  0.0000E+00 -8.5235E+03 -8.5235E+03  0.0000E+00  0.0000E+00  0.0000E+00  0.0000E+00  0.0000E+00
           1.1974E+04  0.0000E+00  0.0000E+00  0.0000E+00  9.0000E+01  9.0000E+01  9.0000E+01  0.0000E+00  2.8378E-01
 ------------------------------------------------------------------------------------------------------------------------
     3100 -1.5257E+05  8.7236E+01 -1.8594E+05 -1.8594E+05  0.0000E+00  0.0000E+00  0.0000E+00  0.0000E+00  0.0000E+00
   3.100p -1.4257E+05  0.0000E+00  3.6733E+04  3.6733E+04  0.0000E+00  0.0000E+00  0.0000E+00  0.0000E+00  0.0000E+00
   2.614s  1.1974E+04  0.0000E+00  0.0000E+00  0.0000E+00  9.0000E+01  9.0000E+01  9.0000E+01  0.0000E+00  1.1381E-01

  rolling -1.5193E+05  8.6761E+01 -1.8511E+05 -1.8511E+05  0.0000E+00  0.0000E+00  0.0000E+00  0.0000E+00  0.0000E+00
 averages -1.3698E+05  0.0000E+00  2.1518E+04  2.1518E+04  0.0000E+00  0.0000E+00  0.0000E+00  0.0000E+00  0.0000E+00
           1.1974E+04  0.0000E+00  0.0000E+00  0.0000E+00  9.0000E+01  9.0000E+01  9.0000E+01  0.0000E+00  1.7015E-01
 ------------------------------------------------------------------------------------------------------------------------
 ------------------------------------------------------------------------------------------------------------------------

     step     eng_tot    temp_tot     eng_cfg     eng_vdw     eng_cou     eng_bnd     eng_ang     eng_dih     eng_tet
 time          eng_pv    temp_rot     vir_cfg     vir_vdw     vir_cou     vir_bnd     vir_ang     vir_con     vir_tet
 cpu time      volume    temp_shl     eng_shl     vir_shl       alpha        beta       gamma     vir_pmf       press

 ------------------------------------------------------------------------------------------------------------------------
     3200 -1.5569E+05  8.6981E+01 -1.8896E+05 -1.8896E+05  0.0000E+00  0.0000E+00  0.0000E+00  0.0000E+00  0.0000E+00
   3.200p -1.6196E+05  0.0000E+00  8.5326E+04  8.5326E+04  0.0000E+00  0.0000E+00  0.0000E+00  0.0000E+00  0.0000E+00
   2.696s  1.1974E+04  0.0000E+00  0.0000E+00  0.0000E+00  9.0000E+01  9.0000E+01  9.0000E+01  0.0000E+00 -7.1260E-02

  rolling -1.5435E+05  8.6956E+01 -1.8761E+05 -1.8761E+05  0.0000E+00  0.0000E+00  0.0000E+00  0.0000E+00  0.0000E+00
 averages -1.5339E+05  0.0000E+00  6.3655E+04  6.3655E+04  0.0000E+00  0.0000E+00  0.0000E+00  0.0000E+00  0.0000E+00
           1.1974E+04  0.0000E+00  0.0000E+00  0.0000E+00  9.0000E+01  9.0000E+01  9.0000E+01  0.0000E+00  1.0873E-02
 ------------------------------------------------------------------------------------------------------------------------
     3300 -1.5581E+05  8.6164E+01 -1.8877E+05 -1.8877E+05  0.0000E+00  0.0000E+00  0.0000E+00  0.0000E+00  0.0000E+00
   3.300p -1.6113E+05  0.0000E+00  8.1868E+04  8.1868E+04  0.0000E+00  0.0000E+00  0.0000E+00  0.0000E+00  0.0000E+00
   2.777s  1.1974E+04  0.0000E+00  0.0000E+00  0.0000E+00  9.0000E+01  9.0000E+01  9.0000E+01  0.0000E+00 -6.0515E-02

  rolling -1.5603E+05  8.6543E+01 -1.8913E+05 -1.8913E+05  0.0000E+00  0.0000E+00  0.0000E+00  0.0000E+00  0.0000E+00
 averages -1.6326E+05  0.0000E+00  8.7906E+04  8.7906E+04  0.0000E+00  0.0000E+00  0.0000E+00  0.0000E+00  0.0000E+00
           1.1974E+04  0.0000E+00  0.0000E+00  0.0000E+00  9.0000E+01  9.0000E+01  9.0000E+01  0.0000E+00 -8.2318E-02
 ------------------------------------------------------------------------------------------------------------------------
     3400 -1.5382E+05  8.6085E+01 -1.8675E+05 -1.8675E+05  0.0000E+00  0.0000E+00  0.0000E+00  0.0000E+00  0.0000E+00
   3.400p -1.4836E+05  0.0000E+00  4.9457E+04  4.9457E+04  0.0000E+00  0.0000E+00  0.0000E+00  0.0000E+00  0.0000E+00
   2.858s  1.1974E+04  0.0000E+00  0.0000E+00  0.0000E+00  9.0000E+01  9.0000E+01  9.0000E+01  0.0000E+00  6.2202E-02

  rolling -1.5480E+05  8.6293E+01 -1.8781E+05 -1.8781E+05  0.0000E+00  0.0000E+00  0.0000E+00  0.0000E+00  0.0000E+00
 averages -1.5481E+05  0.0000E+00  6.6051E+04  6.6051E+04  0.0000E+00  0.0000E+00  0.0000E+00  0.0000E+00  0.0000E+00
           1.1974E+04  0.0000E+00  0.0000E+00  0.0000E+00  9.0000E+01  9.0000E+01  9.0000E+01  0.0000E+00 -1.3813E-04
 ------------------------------------------------------------------------------------------------------------------------
     3500 -1.5366E+05  8.6975E+01 -1.8692E+05 -1.8692E+05  0.0000E+00  0.0000E+00  0.0000E+00  0.0000E+00  0.0000E+00
   3.500p -1.4908E+05  0.0000E+00  5.2814E+04  5.2814E+04  0.0000E+00  0.0000E+00  0.0000E+00  0.0000E+00  0.0000E+00
   2.940s  1.1974E+04  0.0000E+00  0.0000E+00  0.0000E+00  9.0000E+01  9.0000E+01  9.0000E+01  0.0000E+00  5.2050E-02

  rolling -1.5343E+05  8.6574E+01 -1.8654E+05 -1.8654E+05  0.0000E+00  0.0000E+00  0.0000E+00  0.0000E+00  0.0000E+00
 averages -1.4684E+05  0.0000E+00  4.6474E+04  4.6474E+04  0.0000E+00  0.0000E+00  0.0000E+00  0.0000E+00  0.0000E+00
           1.1974E+04  0.0000E+00  0.0000E+00  0.0000E+00  9.0000E+01  9.0000E+01  9.0000E+01  0.0000E+00  7.4937E-02
 ------------------------------------------------------------------------------------------------------------------------
     3600 -1.5560E+05  8.6778E+01 -1.8879E+05 -1.8879E+05  0.0000E+00  0.0000E+00  0.0000E+00  0.0000E+00  0.0000E+00
   3.600p -1.6046E+05  0.0000E+00  8.0968E+04  8.0968E+04  0.0000E+00  0.0000E+00  0.0000E+00  0.0000E+00  0.0000E+00
   3.021s  1.1974E+04  0.0000E+00  0.0000E+00  0.0000E+00  9.0000E+01  9.0000E+01  9.0000E+01  0.0000E+00 -5.5319E-02

  rolling -1.5473E+05  8.6809E+01 -1.8793E+05 -1.8793E+05  0.0000E+00  0.0000E+00  0.0000E+00  0.0000E+00  0.0000E+00
 averages -1.5539E+05  0.0000E+00  6.8402E+04  6.8402E+04  0.0000E+00  0.0000E+00  0.0000E+00  0.0000E+00  0.0000E+00
           1.1974E+04  0.0000E+00  0.0000E+00  0.0000E+00  9.0000E+01  9.0000E+01  9.0000E+01  0.0000E+00 -7.5617E-03
 ------------------------------------------------------------------------------------------------------------------------
     3700 -1.5448E+05  8.6757E+01 -1.8766E+05 -1.8766E+05  0.0000E+00  0.0000E+00  0.0000E+00  0.0000E+00  0.0000E+00
   3.700p -1.5399E+05  0.0000E+00  6.4914E+04  6.4914E+04  0.0000E+00  0.0000E+00  0.0000E+00  0.0000E+00  0.0000E+00
   3.103s  1.1974E+04  0.0000E+00  0.0000E+00  0.0000E+00  9.0000E+01  9.0000E+01  9.0000E+01  0.0000E+00  5.5193E-03

  rolling -1.5512E+05  8.6410E+01 -1.8817E+05 -1.8817E+05  0.0000E+00  0.0000E+00  0.0000E+00  0.0000E+00  0.0000E+00
 averages -1.5704E+05  0.0000E+00  7.1877E+04  7.1877E+04  0.0000E+00  0.0000E+00  0.0000E+00  0.0000E+00  0.0000E+00
           1.1974E+04  0.0000E+00  0.0000E+00  0.0000E+00  9.0000E+01  9.0000E+01  9.0000E+01  0.0000E+00 -2.1897E-02
 ------------------------------------------------------------------------------------------------------------------------
     3800 -1.5622E+05  8.6395E+01 -1.8926E+05 -1.8926E+05  0.0000E+00  0.0000E+00  0.0000E+00  0.0000E+00  0.0000E+00
   3.800p -1.6402E+05  0.0000E+00  8.9499E+04  8.9499E+04  0.0000E+00  0.0000E+00  0.0000E+00  0.0000E+00  0.0000E+00
   3.184s  1.1974E+04  0.0000E+00  0.0000E+00  0.0000E+00  9.0000E+01  9.0000E+01  9.0000E+01  0.0000E+00 -8.8787E-02

  rolling -1.5552E+05  8.6766E+01 -1.8871E+05 -1.8871E+05  0.0000E+00  0.0000E+00  0.0000E+00  0.0000E+00  0.0000E+00
 averages -1.6035E+05  0.0000E+00  8.0838E+04  8.0838E+04  0.0000E+00  0.0000E+00  0.0000E+00  0.0000E+00  0.0000E+00
           1.1974E+04  0.0000E+00  0.0000E+00  0.0000E+00  9.0000E+01  9.0000E+01  9.0000E+01  0.0000E+00 -5.4861E-02
 ------------------------------------------------------------------------------------------------------------------------
     3900 -1.5158E+05  8.4911E+01 -1.8406E+05 -1.8406E+05  0.0000E+00  0.0000E+00  0.0000E+00  0.0000E+00  0.0000E+00
   3.900p -1.3432E+05  0.0000E+00  1.3173E+04  1.3173E+04  0.0000E+00  0.0000E+00  0.0000E+00  0.0000E+00  0.0000E+00
   3.265s  1.1974E+04  0.0000E+00  0.0000E+00  0.0000E+00  9.0000E+01  9.0000E+01  9.0000E+01  0.0000E+00  1.9643E-01

  rolling -1.5435E+05  8.5880E+01 -1.8719E+05 -1.8719E+05  0.0000E+00  0.0000E+00  0.0000E+00  0.0000E+00  0.0000E+00
 averages -1.5207E+05  0.0000E+00  5.8873E+04  5.8873E+04  0.0000E+00  0.0000E+00  0.0000E+00  0.0000E+00  0.0000E+00
           1.1974E+04  0.0000E+00  0.0000E+00  0.0000E+00  9.0000E+01  9.0000E+01  9.0000E+01  0.0000E+00  2.5889E-02
 ------------------------------------------------------------------------------------------------------------------------
 ------------------------------------------------------------------------------------------------------------------------

     step     eng_tot    temp_tot     eng_cfg     eng_vdw     eng_cou     eng_bnd     eng_ang     eng_dih     eng_tet
 time          eng_pv    temp_rot     vir_cfg     vir_vdw     vir_cou     vir_bnd     vir_ang     vir_con     vir_tet
 cpu time      volume    temp_shl     eng_shl     vir_shl       alpha        beta       gamma     vir_pmf       press

 ------------------------------------------------------------------------------------------------------------------------
     4000 -1.5203E+05  8.7499E+01 -1.8550E+05 -1.8550E+05  0.0000E+00  0.0000E+00  0.0000E+00  0.0000E+00  0.0000E+00
   4.000p -1.4186E+05  0.0000E+00  3.6433E+04  3.6433E+04  0.0000E+00  0.0000E+00  0.0000E+00  0.0000E+00  0.0000E+00
   3.346s  1.1974E+04  0.0000E+00  0.0000E+00  0.0000E+00  9.0000E+01  9.0000E+01  9.0000E+01  0.0000E+00  1.1571E-01

  rolling -1.5079E+05  8.6728E+01 -1.8397E+05 -1.8397E+05  0.0000E+00  0.0000E+00  0.0000E+00  0.0000E+00  0.0000E+00
 averages -1.3284E+05  0.0000E+00  1.2488E+04  1.2488E+04  0.0000E+00  0.0000E+00  0.0000E+00  0.0000E+00  0.0000E+00
           1.1974E+04  0.0000E+00  0.0000E+00  0.0000E+00  9.0000E+01  9.0000E+01  9.0000E+01  0.0000E+00  2.0430E-01
 ------------------------------------------------------------------------------------------------------------------------
     4100 -1.5534E+05  8.6980E+01 -1.8861E+05 -1.8861E+05  0.0000E+00  0.0000E+00  0.0000E+00  0.0000E+00  0.0000E+00
   4.100p -1.6260E+05  0.0000E+00  8.8304E+04  8.8304E+04  0.0000E+00  0.0000E+00  0.0000E+00  0.0000E+00  0.0000E+00
   3.433s  1.1974E+04  0.0000E+00  0.0000E+00  0.0000E+00  9.0000E+01  9.0000E+01  9.0000E+01  0.0000E+00 -8.2559E-02

  rolling -1.5398E+05  8.6973E+01 -1.8725E+05 -1.8725E+05  0.0000E+00  0.0000E+00  0.0000E+00  0.0000E+00  0.0000E+00
 averages -1.5364E+05  0.0000E+00  6.5523E+04  6.5523E+04  0.0000E+00  0.0000E+00  0.0000E+00  0.0000E+00  0.0000E+00
           1.1974E+04  0.0000E+00  0.0000E+00  0.0000E+00  9.0000E+01  9.0000E+01  9.0000E+01  0.0000E+00  3.8361E-03
 ------------------------------------------------------------------------------------------------------------------------
     4200 -1.5548E+05  8.6175E+01 -1.8844E+05 -1.8844E+05  0.0000E+00  0.0000E+00  0.0000E+00  0.0000E+00  0.0000E+00
   4.200p -1.6177E+05  0.0000E+00  8.4772E+04  8.4772E+04  0.0000E+00  0.0000E+00  0.0000E+00  0.0000E+00  0.0000E+00
   3.515s  1.1974E+04  0.0000E+00  0.0000E+00  0.0000E+00  9.0000E+01  9.0000E+01  9.0000E+01  0.0000E+00 -7.1499E-02

  rolling -1.5567E+05  8.6535E+01 -1.8877E+05 -1.8877E+05  0.0000E+00  0.0000E+00  0.0000E+00  0.0000E+00  0.0000E+00
 averages -1.6384E+05  0.0000E+00  9.0712E+04  9.0712E+04  0.0000E+00  0.0000E+00  0.0000E+00  0.0000E+00  0.0000E+00
           1.1974E+04  0.0000E+00  0.0000E+00  0.0000E+00  9.0000E+01  9.0000E+01  9.0000E+01  0.0000E+00 -9.2987E-02
 ------------------------------------------------------------------------------------------------------------------------
     4300 -1.5372E+05  8.6421E+01 -1.8678E+05 -1.8678E+05  0.0000E+00  0.0000E+00  0.0000E+00  0.0000E+00  0.0000E+00
   4.300p -1.5002E+05  0.0000E+00  5.5008E+04  5.5008E+04  0.0000E+00  0.0000E+00  0.0000E+00  0.0000E+00  0.0000E+00
   3.596s  1.1974E+04  0.0000E+00  0.0000E+00  0.0000E+00  9.0000E+01  9.0000E+01  9.0000E+01  0.0000E+00  4.2123E-02

  rolling -1.5441E+05  8.6339E+01 -1.8744E+05 -1.8744E+05  0.0000E+00  0.0000E+00  0.0000E+00  0.0000E+00  0.0000E+00
 averages -1.5492E+05  0.0000E+00  6.7573E+04  6.7573E+04  0.0000E+00  0.0000E+00  0.0000E+00  0.0000E+00  0.0000E+00
           1.1974E+04  0.0000E+00  0.0000E+00  0.0000E+00  9.0000E+01  9.0000E+01  9.0000E+01  0.0000E+00 -5.7772E-03
 ------------------------------------------------------------------------------------------------------------------------
     4400 -1.5327E+05  8.6598E+01 -1.8640E+05 -1.8640E+05  0.0000E+00  0.0000E+00  0.0000E+00  0.0000E+00  0.0000E+00
   4.400p -1.4708E+05  0.0000E+00  4.7678E+04  4.7678E+04  0.0000E+00  0.0000E+00  0.0000E+00  0.0000E+00  0.0000E+00
   3.678s  1.1974E+04  0.0000E+00  0.0000E+00  0.0000E+00  9.0000E+01  9.0000E+01  9.0000E+01  0.0000E+00  7.0439E-02

  rolling -1.5346E+05  8.6513E+01 -1.8655E+05 -1.8655E+05  0.0000E+00  0.0000E+00  0.0000E+00  0.0000E+00  0.0000E+00
 averages -1.4812E+05  0.0000E+00  5.0173E+04  5.0173E+04  0.0000E+00  0.0000E+00  0.0000E+00  0.0000E+00  0.0000E+00
           1.1974E+04  0.0000E+00  0.0000E+00  0.0000E+00  9.0000E+01  9.0000E+01  9.0000E+01  0.0000E+00  6.0729E-02
 ------------------------------------------------------------------------------------------------------------------------
     4500 -1.5314E+05  8.6309E+01 -1.8616E+05 -1.8616E+05  0.0000E+00  0.0000E+00  0.0000E+00  0.0000E+00  0.0000E+00
   4.500p -1.4665E+05  0.0000E+00  4.6544E+04  4.6544E+04  0.0000E+00  0.0000E+00  0.0000E+00  0.0000E+00  0.0000E+00
   3.759s  1.1974E+04  0.0000E+00  0.0000E+00  0.0000E+00  9.0000E+01  9.0000E+01  9.0000E+01  0.0000E+00  7.3904E-02

  rolling -1.5334E+05  8.6531E+01 -1.8644E+05 -1.8644E+05  0.0000E+00  0.0000E+00  0.0000E+00  0.0000E+00  0.0000E+00
 averages -1.4772E+05  0.0000E+00  4.9338E+04  4.9338E+04  0.0000E+00  0.0000E+00  0.0000E+00  0.0000E+00  0.0000E+00
           1.1974E+04  0.0000E+00  0.0000E+00  0.0000E+00  9.0000E+01  9.0000E+01  9.0000E+01  0.0000E+00  6.3949E-02
 ------------------------------------------------------------------------------------------------------------------------
     4600 -1.5246E+05  8.7009E+01 -1.8574E+05 -1.8574E+05  0.0000E+00  0.0000E+00  0.0000E+00  0.0000E+00  0.0000E+00
   4.600p -1.4429E+05  0.0000E+00  4.2038E+04  4.2038E+04  0.0000E+00  0.0000E+00  0.0000E+00  0.0000E+00  0.0000E+00
   3.842s  1.1974E+04  0.0000E+00  0.0000E+00  0.0000E+00  9.0000E+01  9.0000E+01  9.0000E+01  0.0000E+00  9.3026E-02

  rolling -1.5263E+05  8.6493E+01 -1.8571E+05 -1.8571E+05  0.0000E+00  0.0000E+00  0.0000E+00  0.0000E+00  0.0000E+00
 averages -1.4422E+05  0.0000E+00  4.0964E+04  4.0964E+04  0.0000E+00  0.0000E+00  0.0000E+00  0.0000E+00  0.0000E+00
           1.1974E+04  0.0000E+00  0.0000E+00  0.0000E+00  9.0000E+01  9.0000E+01  9.0000E+01  0.0000E+00  9.5606E-02
 ------------------------------------------------------------------------------------------------------------------------
     4700 -1.5473E+05  8.6673E+01 -1.8788E+05 -1.8788E+05  0.0000E+00  0.0000E+00  0.0000E+00  0.0000E+00  0.0000E+00
   4.700p -1.5672E+05  0.0000E+00  7.2263E+04  7.2263E+04  0.0000E+00  0.0000E+00  0.0000E+00  0.0000E+00  0.0000E+00
   3.923s  1.1974E+04  0.0000E+00  0.0000E+00  0.0000E+00  9.0000E+01  9.0000E+01  9.0000E+01  0.0000E+00 -2.2601E-02

  rolling -1.5387E+05  8.6846E+01 -1.8709E+05 -1.8709E+05  0.0000E+00  0.0000E+00  0.0000E+00  0.0000E+00  0.0000E+00
 averages -1.5221E+05  0.0000E+00  6.1443E+04  6.1443E+04  0.0000E+00  0.0000E+00  0.0000E+00  0.0000E+00  0.0000E+00
           1.1974E+04  0.0000E+00  0.0000E+00  0.0000E+00  9.0000E+01  9.0000E+01  9.0000E+01  0.0000E+00  1.8944E-02
 ------------------------------------------------------------------------------------------------------------------------
 ------------------------------------------------------------------------------------------------------------------------

     step     eng_tot    temp_tot     eng_cfg     eng_vdw     eng_cou     eng_bnd     eng_ang     eng_dih     eng_tet
 time          eng_pv    temp_rot     vir_cfg     vir_vdw     vir_cou     vir_bnd     vir_ang     vir_con     vir_tet
 cpu time      volume    temp_shl     eng_shl     vir_shl       alpha        beta       gamma     vir_pmf       press

 ------------------------------------------------------------------------------------------------------------------------
     4800 -1.5596E+05  8.7133E+01 -1.8929E+05 -1.8929E+05  0.0000E+00  0.0000E+00  0.0000E+00  0.0000E+00  0.0000E+00
   4.800p -1.6451E+05  0.0000E+00  9.2320E+04  9.2320E+04  0.0000E+00  0.0000E+00  0.0000E+00  0.0000E+00  0.0000E+00
   4.004s  1.1974E+04  0.0000E+00  0.0000E+00  0.0000E+00  9.0000E+01  9.0000E+01  9.0000E+01  0.0000E+00 -9.7348E-02

  rolling -1.5515E+05  8.6746E+01 -1.8833E+05 -1.8833E+05  0.0000E+00  0.0000E+00  0.0000E+00  0.0000E+00  0.0000E+00
 averages -1.5915E+05  0.0000E+00  7.8360E+04  7.8360E+04  0.0000E+00  0.0000E+00  0.0000E+00  0.0000E+00  0.0000E+00
           1.1974E+04  0.0000E+00  0.0000E+00  0.0000E+00  9.0000E+01  9.0000E+01  9.0000E+01  0.0000E+00 -4.5515E-02
 ------------------------------------------------------------------------------------------------------------------------
     4900 -1.5659E+05  8.6215E+01 -1.8957E+05 -1.8957E+05  0.0000E+00  0.0000E+00  0.0000E+00  0.0000E+00  0.0000E+00
   4.900p -1.6591E+05  0.0000E+00  9.3907E+04  9.3907E+04  0.0000E+00  0.0000E+00  0.0000E+00  0.0000E+00  0.0000E+00
   4.086s  1.1974E+04  0.0000E+00  0.0000E+00  0.0000E+00  9.0000E+01  9.0000E+01  9.0000E+01  0.0000E+00 -1.0603E-01

  rolling -1.5658E+05  8.6592E+01 -1.8970E+05 -1.8970E+05  0.0000E+00  0.0000E+00  0.0000E+00  0.0000E+00  0.0000E+00
 averages -1.6708E+05  0.0000E+00  9.7732E+04  9.7732E+04  0.0000E+00  0.0000E+00  0.0000E+00  0.0000E+00  0.0000E+00
           1.1974E+04  0.0000E+00  0.0000E+00  0.0000E+00  9.0000E+01  9.0000E+01  9.0000E+01  0.0000E+00 -1.1945E-01
 ------------------------------------------------------------------------------------------------------------------------
     5000 -1.5449E+05  8.6554E+01 -1.8759E+05 -1.8759E+05  0.0000E+00  0.0000E+00  0.0000E+00  0.0000E+00  0.0000E+00
   5.000p -1.5248E+05  0.0000E+00  6.0204E+04  6.0204E+04  0.0000E+00  0.0000E+00  0.0000E+00  0.0000E+00  0.0000E+00
   4.167s  1.1974E+04  0.0000E+00  0.0000E+00  0.0000E+00  9.0000E+01  9.0000E+01  9.0000E+01  0.0000E+00  2.2800E-02

  rolling -1.5543E+05  8.6297E+01 -1.8844E+05 -1.8844E+05  0.0000E+00  0.0000E+00  0.0000E+00  0.0000E+00  0.0000E+00
 averages -1.5833E+05  0.0000E+00  7.4713E+04  7.4713E+04  0.0000E+00  0.0000E+00  0.0000E+00  0.0000E+00  0.0000E+00
           1.1974E+04  0.0000E+00  0.0000E+00  0.0000E+00  9.0000E+01  9.0000E+01  9.0000E+01  0.0000E+00 -3.2988E-02
 ------------------------------------------------------------------------------------------------------------------------
     5100 -1.5451E+05  8.6240E+01 -1.8750E+05 -1.8750E+05  0.0000E+00  0.0000E+00  0.0000E+00  0.0000E+00  0.0000E+00
   5.100p -1.5039E+05  0.0000E+00  5.3609E+04  5.3609E+04  0.0000E+00  0.0000E+00  0.0000E+00  0.0000E+00  0.0000E+00
   4.253s  1.1974E+04  0.0000E+00  0.0000E+00  0.0000E+00  9.0000E+01  9.0000E+01  9.0000E+01  0.0000E+00  4.6904E-02

  rolling -1.5468E+05  8.6552E+01 -1.8779E+05 -1.8779E+05  0.0000E+00  0.0000E+00  0.0000E+00  0.0000E+00  0.0000E+00
 averages -1.5275E+05  0.0000E+00  6.0434E+04  6.0434E+04  0.0000E+00  0.0000E+00  0.0000E+00  0.0000E+00  0.0000E+00
           1.1974E+04  0.0000E+00  0.0000E+00  0.0000E+00  9.0000E+01  9.0000E+01  9.0000E+01  0.0000E+00  2.1919E-02
 ------------------------------------------------------------------------------------------------------------------------
     5200 -1.5319E+05  8.6320E+01 -1.8620E+05 -1.8620E+05  0.0000E+00  0.0000E+00  0.0000E+00  0.0000E+00  0.0000E+00
   5.200p -1.4190E+05  0.0000E+00  3.2163E+04  3.2163E+04  0.0000E+00  0.0000E+00  0.0000E+00  0.0000E+00  0.0000E+00
   4.334s  1.1974E+04  0.0000E+00  0.0000E+00  0.0000E+00  9.0000E+01  9.0000E+01  9.0000E+01  0.0000E+00  1.2849E-01

  rolling -1.5383E+05  8.6392E+01 -1.8687E+05 -1.8687E+05  0.0000E+00  0.0000E+00  0.0000E+00  0.0000E+00  0.0000E+00
 averages -1.4588E+05  0.0000E+00  4.2258E+04  4.2258E+04  0.0000E+00  0.0000E+00  0.0000E+00  0.0000E+00  0.0000E+00
           1.1974E+04  0.0000E+00  0.0000E+00  0.0000E+00  9.0000E+01  9.0000E+01  9.0000E+01  0.0000E+00  9.0401E-02
 ------------------------------------------------------------------------------------------------------------------------
     5300 -1.5366E+05  8.6627E+01 -1.8679E+05 -1.8679E+05  0.0000E+00  0.0000E+00  0.0000E+00  0.0000E+00  0.0000E+00
   5.300p -1.4648E+05  0.0000E+00  4.4725E+04  4.4725E+04  0.0000E+00  0.0000E+00  0.0000E+00  0.0000E+00  0.0000E+00
   4.415s  1.1974E+04  0.0000E+00  0.0000E+00  0.0000E+00  9.0000E+01  9.0000E+01  9.0000E+01  0.0000E+00  8.1727E-02

  rolling -1.5331E+05  8.6626E+01 -1.8645E+05 -1.8645E+05  0.0000E+00  0.0000E+00  0.0000E+00  0.0000E+00  0.0000E+00
 averages -1.4372E+05  0.0000E+00  3.7500E+04  3.7500E+04  0.0000E+00  0.0000E+00  0.0000E+00  0.0000E+00  0.0000E+00
           1.1974E+04  0.0000E+00  0.0000E+00  0.0000E+00  9.0000E+01  9.0000E+01  9.0000E+01  0.0000E+00  1.0913E-01
 ------------------------------------------------------------------------------------------------------------------------
     5400 -1.5447E+05  8.6761E+01 -1.8766E+05 -1.8766E+05  0.0000E+00  0.0000E+00  0.0000E+00  0.0000E+00  0.0000E+00
   5.400p -1.5386E+05  0.0000E+00  6.4538E+04  6.4538E+04  0.0000E+00  0.0000E+00  0.0000E+00  0.0000E+00  0.0000E+00
   4.497s  1.1974E+04  0.0000E+00  0.0000E+00  0.0000E+00  9.0000E+01  9.0000E+01  9.0000E+01  0.0000E+00  6.9582E-03

  rolling -1.5400E+05  8.6677E+01 -1.8715E+05 -1.8715E+05  0.0000E+00  0.0000E+00  0.0000E+00  0.0000E+00  0.0000E+00
 averages -1.4977E+05  0.0000E+00  5.3637E+04  5.3637E+04  0.0000E+00  0.0000E+00  0.0000E+00  0.0000E+00  0.0000E+00
           1.1974E+04  0.0000E+00  0.0000E+00  0.0000E+00  9.0000E+01  9.0000E+01  9.0000E+01  0.0000E+00  4.8066E-02
 ------------------------------------------------------------------------------------------------------------------------
     5500 -1.5458E+05  8.6433E+01 -1.8764E+05 -1.8764E+05  0.0000E+00  0.0000E+00  0.0000E+00  0.0000E+00  0.0000E+00
   5.500p -1.5534E+05  0.0000E+00  6.8394E+04  6.8394E+04  0.0000E+00  0.0000E+00  0.0000E+00  0.0000E+00  0.0000E+00
   4.578s  1.1974E+04  0.0000E+00  0.0000E+00  0.0000E+00  9.0000E+01  9.0000E+01  9.0000E+01  0.0000E+00 -8.6205E-03

  rolling -1.5462E+05  8.6559E+01 -1.8773E+05 -1.8773E+05  0.0000E+00  0.0000E+00  0.0000E+00  0.0000E+00  0.0000E+00
 averages -1.5530E+05  0.0000E+00  6.8242E+04  6.8242E+04  0.0000E+00  0.0000E+00  0.0000E+00  0.0000E+00  0.0000E+00
           1.1974E+04  0.0000E+00  0.0000E+00  0.0000E+00  9.0000E+01  9.0000E+01  9.0000E+01  0.0000E+00 -7.6792E-03
 ------------------------------------------------------------------------------------------------------------------------
 ------------------------------------------------------------------------------------------------------------------------

     step     eng_tot    temp_tot     eng_cfg     eng_vdw     eng_cou     eng_bnd     eng_ang     eng_dih     eng_tet
 time          eng_pv    temp_rot     vir_cfg     vir_vdw     vir_cou     vir_bnd     vir_ang     vir_con     vir_tet
 cpu time      volume    temp_shl     eng_shl     vir_shl       alpha        beta       gamma     vir_pmf       press

 ------------------------------------------------------------------------------------------------------------------------
     5600 -1.5396E+05  8.6706E+01 -1.8712E+05 -1.8712E+05  0.0000E+00  0.0000E+00  0.0000E+00  0.0000E+00  0.0000E+00
   5.600p -1.5212E+05  0.0000E+00  6.0805E+04  6.0805E+04  0.0000E+00  0.0000E+00  0.0000E+00  0.0000E+00  0.0000E+00
   4.660s  1.1974E+04  0.0000E+00  0.0000E+00  0.0000E+00  9.0000E+01  9.0000E+01  9.0000E+01  0.0000E+00  2.0958E-02

  rolling -1.5418E+05  8.6489E+01 -1.8726E+05 -1.8726E+05  0.0000E+00  0.0000E+00  0.0000E+00  0.0000E+00  0.0000E+00
 averages -1.5307E+05  0.0000E+00  6.2856E+04  6.2856E+04  0.0000E+00  0.0000E+00  0.0000E+00  0.0000E+00  0.0000E+00
           1.1974E+04  0.0000E+00  0.0000E+00  0.0000E+00  9.0000E+01  9.0000E+01  9.0000E+01  0.0000E+00  1.2550E-02
 ------------------------------------------------------------------------------------------------------------------------
     5700 -1.5485E+05  8.6681E+01 -1.8801E+05 -1.8801E+05  0.0000E+00  0.0000E+00  0.0000E+00  0.0000E+00  0.0000E+00
   5.700p -1.5667E+05  0.0000E+00  7.1758E+04  7.1758E+04  0.0000E+00  0.0000E+00  0.0000E+00  0.0000E+00  0.0000E+00
   4.741s  1.1974E+04  0.0000E+00  0.0000E+00  0.0000E+00  9.0000E+01  9.0000E+01  9.0000E+01  0.0000E+00 -2.0663E-02

  rolling -1.5445E+05  8.6667E+01 -1.8760E+05 -1.8760E+05  0.0000E+00  0.0000E+00  0.0000E+00  0.0000E+00  0.0000E+00
 averages -1.5466E+05  0.0000E+00  6.6910E+04  6.6910E+04  0.0000E+00  0.0000E+00  0.0000E+00  0.0000E+00  0.0000E+00
           1.1974E+04  0.0000E+00  0.0000E+00  0.0000E+00  9.0000E+01  9.0000E+01  9.0000E+01  0.0000E+00 -2.3134E-03
 ------------------------------------------------------------------------------------------------------------------------
     5800 -1.5296E+05  8.5856E+01 -1.8580E+05 -1.8580E+05  0.0000E+00  0.0000E+00  0.0000E+00  0.0000E+00  0.0000E+00
   5.800p -1.4392E+05  0.0000E+00  3.8547E+04  3.8547E+04  0.0000E+00  0.0000E+00  0.0000E+00  0.0000E+00  0.0000E+00
   4.823s  1.1974E+04  0.0000E+00  0.0000E+00  0.0000E+00  9.0000E+01  9.0000E+01  9.0000E+01  0.0000E+00  1.0292E-01

  rolling -1.5421E+05  8.6279E+01 -1.8721E+05 -1.8721E+05  0.0000E+00  0.0000E+00  0.0000E+00  0.0000E+00  0.0000E+00
 averages -1.5203E+05  0.0000E+00  5.9476E+04  5.9476E+04  0.0000E+00  0.0000E+00  0.0000E+00  0.0000E+00  0.0000E+00
           1.1974E+04  0.0000E+00  0.0000E+00  0.0000E+00  9.0000E+01  9.0000E+01  9.0000E+01  0.0000E+00  2.4760E-02
 ------------------------------------------------------------------------------------------------------------------------
     5900 -1.5365E+05  8.7230E+01 -1.8702E+05 -1.8702E+05  0.0000E+00  0.0000E+00  0.0000E+00  0.0000E+00  0.0000E+00
   5.900p -1.5057E+05  0.0000E+00  5.7497E+04  5.7497E+04  0.0000E+00  0.0000E+00  0.0000E+00  0.0000E+00  0.0000E+00
   4.904s  1.1974E+04  0.0000E+00  0.0000E+00  0.0000E+00  9.0000E+01  9.0000E+01  9.0000E+01  0.0000E+00  3.5028E-02

  rolling -1.5279E+05  8.6711E+01 -1.8596E+05 -1.8596E+05  0.0000E+00  0.0000E+00  0.0000E+00  0.0000E+00  0.0000E+00
 averages -1.4442E+05  0.0000E+00  4.1212E+04  4.1212E+04  0.0000E+00  0.0000E+00  0.0000E+00  0.0000E+00  0.0000E+00
           1.1974E+04  0.0000E+00  0.0000E+00  0.0000E+00  9.0000E+01  9.0000E+01  9.0000E+01  0.0000E+00  9.5297E-02
 ------------------------------------------------------------------------------------------------------------------------
     6000 -1.5389E+05  8.5993E+01 -1.8678E+05 -1.8678E+05  0.0000E+00  0.0000E+00  0.0000E+00  0.0000E+00  0.0000E+00
   6.000p -1.5014E+05  0.0000E+00  5.4542E+04  5.4542E+04  0.0000E+00  0.0000E+00  0.0000E+00  0.0000E+00  0.0000E+00
   4.986s  1.1974E+04  0.0000E+00  0.0000E+00  0.0000E+00  9.0000E+01  9.0000E+01  9.0000E+01  0.0000E+00  4.2646E-02

  rolling -1.5428E+05  8.6540E+01 -1.8738E+05 -1.8738E+05  0.0000E+00  0.0000E+00  0.0000E+00  0.0000E+00  0.0000E+00
 averages -1.5324E+05  0.0000E+00  6.3080E+04  6.3080E+04  0.0000E+00  0.0000E+00  0.0000E+00  0.0000E+00  0.0000E+00
           1.1974E+04  0.0000E+00  0.0000E+00  0.0000E+00  9.0000E+01  9.0000E+01  9.0000E+01  0.0000E+00  1.1848E-02
 ------------------------------------------------------------------------------------------------------------------------
     6100 -1.5420E+05  8.6999E+01 -1.8748E+05 -1.8748E+05  0.0000E+00  0.0000E+00  0.0000E+00  0.0000E+00  0.0000E+00
   6.100p -1.5286E+05  0.0000E+00  6.2516E+04  6.2516E+04  0.0000E+00  0.0000E+00  0.0000E+00  0.0000E+00  0.0000E+00
   5.072s  1.1974E+04  0.0000E+00  0.0000E+00  0.0000E+00  9.0000E+01  9.0000E+01  9.0000E+01  0.0000E+00  1.5317E-02

  rolling -1.5358E+05  8.6646E+01 -1.8672E+05 -1.8672E+05  0.0000E+00  0.0000E+00  0.0000E+00  0.0000E+00  0.0000E+00
 averages -1.4908E+05  0.0000E+00  5.2769E+04  5.2769E+04  0.0000E+00  0.0000E+00  0.0000E+00  0.0000E+00  0.0000E+00
           1.1974E+04  0.0000E+00  0.0000E+00  0.0000E+00  9.0000E+01  9.0000E+01  9.0000E+01  0.0000E+00  5.1266E-02
 ------------------------------------------------------------------------------------------------------------------------
     6200 -1.5324E+05  8.5788E+01 -1.8605E+05 -1.8605E+05  0.0000E+00  0.0000E+00  0.0000E+00  0.0000E+00  0.0000E+00
   6.200p -1.4528E+05  0.0000E+00  4.1774E+04  4.1774E+04  0.0000E+00  0.0000E+00  0.0000E+00  0.0000E+00  0.0000E+00
   5.153s  1.1974E+04  0.0000E+00  0.0000E+00  0.0000E+00  9.0000E+01  9.0000E+01  9.0000E+01  0.0000E+00  9.0482E-02

  rolling -1.5421E+05  8.6375E+01 -1.8725E+05 -1.8725E+05  0.0000E+00  0.0000E+00  0.0000E+00  0.0000E+00  0.0000E+00
 averages -1.5169E+05  0.0000E+00  5.8513E+04  5.8513E+04  0.0000E+00  0.0000E+00  0.0000E+00  0.0000E+00  0.0000E+00
           1.1974E+04  0.0000E+00  0.0000E+00  0.0000E+00  9.0000E+01  9.0000E+01  9.0000E+01  0.0000E+00  2.8692E-02
 ------------------------------------------------------------------------------------------------------------------------
     6300 -1.5362E+05  8.7315E+01 -1.8702E+05 -1.8702E+05  0.0000E+00  0.0000E+00  0.0000E+00  0.0000E+00  0.0000E+00
   6.300p -1.5182E+05  0.0000E+00  6.1375E+04  6.1375E+04  0.0000E+00  0.0000E+00  0.0000E+00  0.0000E+00  0.0000E+00
   5.235s  1.1974E+04  0.0000E+00  0.0000E+00  0.0000E+00  9.0000E+01  9.0000E+01  9.0000E+01  0.0000E+00  2.0564E-02

  rolling -1.5289E+05  8.6667E+01 -1.8604E+05 -1.8604E+05  0.0000E+00  0.0000E+00  0.0000E+00  0.0000E+00  0.0000E+00
 averages -1.4554E+05  0.0000E+00  4.4239E+04  4.4239E+04  0.0000E+00  0.0000E+00  0.0000E+00  0.0000E+00  0.0000E+00
           1.1974E+04  0.0000E+00  0.0000E+00  0.0000E+00  9.0000E+01  9.0000E+01  9.0000E+01  0.0000E+00  8.3688E-02
 ------------------------------------------------------------------------------------------------------------------------
 ------------------------------------------------------------------------------------------------------------------------

     step     eng_tot    temp_tot     eng_cfg     eng_vdw     eng_cou     eng_bnd     eng_ang     eng_dih     eng_tet
 time          eng_pv    temp_rot     vir_cfg     vir_vdw     vir_cou     vir_bnd     vir_ang     vir_con     vir_tet
 cpu time      volume    temp_shl     eng_shl     vir_shl       alpha        beta       gamma     vir_pmf       press

 ------------------------------------------------------------------------------------------------------------------------
     6400 -1.5602E+05  8.6972E+01 -1.8929E+05 -1.8929E+05  0.0000E+00  0.0000E+00  0.0000E+00  0.0000E+00  0.0000E+00
   6.400p -1.6629E+05  0.0000E+00  9.7329E+04  9.7329E+04  0.0000E+00  0.0000E+00  0.0000E+00  0.0000E+00  0.0000E+00
   5.316s  1.1974E+04  0.0000E+00  0.0000E+00  0.0000E+00  9.0000E+01  9.0000E+01  9.0000E+01  0.0000E+00 -1.1681E-01

  rolling -1.5512E+05  8.6854E+01 -1.8834E+05 -1.8834E+05  0.0000E+00  0.0000E+00  0.0000E+00  0.0000E+00  0.0000E+00
 averages -1.6048E+05  0.0000E+00  8.2538E+04  8.2538E+04  0.0000E+00  0.0000E+00  0.0000E+00  0.0000E+00  0.0000E+00
           1.1974E+04  0.0000E+00  0.0000E+00  0.0000E+00  9.0000E+01  9.0000E+01  9.0000E+01  0.0000E+00 -6.1051E-02
 ------------------------------------------------------------------------------------------------------------------------
     6500 -1.5701E+05  8.6183E+01 -1.8997E+05 -1.8997E+05  0.0000E+00  0.0000E+00  0.0000E+00  0.0000E+00  0.0000E+00
   6.500p -1.7005E+05  0.0000E+00  1.0506E+05  1.0506E+05  0.0000E+00  0.0000E+00  0.0000E+00  0.0000E+00  0.0000E+00
   5.396s  1.1974E+04  0.0000E+00  0.0000E+00  0.0000E+00  9.0000E+01  9.0000E+01  9.0000E+01  0.0000E+00 -1.4843E-01

  rolling -1.5682E+05  8.6660E+01 -1.8997E+05 -1.8997E+05  0.0000E+00  0.0000E+00  0.0000E+00  0.0000E+00  0.0000E+00
 averages -1.7025E+05  0.0000E+00  1.0660E+05  1.0660E+05  0.0000E+00  0.0000E+00  0.0000E+00  0.0000E+00  0.0000E+00
           1.1974E+04  0.0000E+00  0.0000E+00  0.0000E+00  9.0000E+01  9.0000E+01  9.0000E+01  0.0000E+00 -1.5288E-01
 ------------------------------------------------------------------------------------------------------------------------
     6600 -1.5544E+05  8.6093E+01 -1.8837E+05 -1.8837E+05  0.0000E+00  0.0000E+00  0.0000E+00  0.0000E+00  0.0000E+00
   6.600p -1.5794E+05  0.0000E+00  7.3359E+04  7.3359E+04  0.0000E+00  0.0000E+00  0.0000E+00  0.0000E+00  0.0000E+00
   5.477s  1.1974E+04  0.0000E+00  0.0000E+00  0.0000E+00  9.0000E+01  9.0000E+01  9.0000E+01  0.0000E+00 -2.8440E-02

  rolling -1.5613E+05  8.6354E+01 -1.8916E+05 -1.8916E+05  0.0000E+00  0.0000E+00  0.0000E+00  0.0000E+00  0.0000E+00
 averages -1.6396E+05  0.0000E+00  8.9562E+04  8.9562E+04  0.0000E+00  0.0000E+00  0.0000E+00  0.0000E+00  0.0000E+00
           1.1974E+04  0.0000E+00  0.0000E+00  0.0000E+00  9.0000E+01  9.0000E+01  9.0000E+01  0.0000E+00 -8.9148E-02
 ------------------------------------------------------------------------------------------------------------------------
     6700 -1.5463E+05  8.6881E+01 -1.8786E+05 -1.8786E+05  0.0000E+00  0.0000E+00  0.0000E+00  0.0000E+00  0.0000E+00
   6.700p -1.5232E+05  0.0000E+00  5.9541E+04  5.9541E+04  0.0000E+00  0.0000E+00  0.0000E+00  0.0000E+00  0.0000E+00
   5.559s  1.1974E+04  0.0000E+00  0.0000E+00  0.0000E+00  9.0000E+01  9.0000E+01  9.0000E+01  0.0000E+00  2.6260E-02

  rolling -1.5469E+05  8.6492E+01 -1.8778E+05 -1.8778E+05  0.0000E+00  0.0000E+00  0.0000E+00  0.0000E+00  0.0000E+00
 averages -1.5297E+05  0.0000E+00  6.0982E+04  6.0982E+04  0.0000E+00  0.0000E+00  0.0000E+00  0.0000E+00  0.0000E+00
           1.1974E+04  0.0000E+00  0.0000E+00  0.0000E+00  9.0000E+01  9.0000E+01  9.0000E+01  0.0000E+00  1.9669E-02
 ------------------------------------------------------------------------------------------------------------------------
     6800 -1.5559E+05  8.6751E+01 -1.8877E+05 -1.8877E+05  0.0000E+00  0.0000E+00  0.0000E+00  0.0000E+00  0.0000E+00
   6.800p -1.5883E+05  0.0000E+00  7.6083E+04  7.6083E+04  0.0000E+00  0.0000E+00  0.0000E+00  0.0000E+00  0.0000E+00
   5.640s  1.1974E+04  0.0000E+00  0.0000E+00  0.0000E+00  9.0000E+01  9.0000E+01  9.0000E+01  0.0000E+00 -3.6865E-02

  rolling -1.5525E+05  8.6681E+01 -1.8840E+05 -1.8840E+05  0.0000E+00  0.0000E+00  0.0000E+00  0.0000E+00  0.0000E+00
 averages -1.5590E+05  0.0000E+00  6.8256E+04  6.8256E+04  0.0000E+00  0.0000E+00  0.0000E+00  0.0000E+00  0.0000E+00
           1.1974E+04  0.0000E+00  0.0000E+00  0.0000E+00  9.0000E+01  9.0000E+01  9.0000E+01  0.0000E+00 -7.3791E-03
 ------------------------------------------------------------------------------------------------------------------------
     6900 -1.5700E+05  8.6754E+01 -1.9018E+05 -1.9018E+05  0.0000E+00  0.0000E+00  0.0000E+00  0.0000E+00  0.0000E+00
   6.900p -1.6962E+05  0.0000E+00  1.0421E+05  1.0421E+05  0.0000E+00  0.0000E+00  0.0000E+00  0.0000E+00  0.0000E+00
   5.721s  1.1974E+04  0.0000E+00  0.0000E+00  0.0000E+00  9.0000E+01  9.0000E+01  9.0000E+01  0.0000E+00 -1.4356E-01

  rolling -1.5630E+05  8.6737E+01 -1.8948E+05 -1.8948E+05  0.0000E+00  0.0000E+00  0.0000E+00  0.0000E+00  0.0000E+00
 averages -1.6418E+05  0.0000E+00  8.9982E+04  8.9982E+04  0.0000E+00  0.0000E+00  0.0000E+00  0.0000E+00  0.0000E+00
           1.1974E+04  0.0000E+00  0.0000E+00  0.0000E+00  9.0000E+01  9.0000E+01  9.0000E+01  0.0000E+00 -8.9630E-02
 ------------------------------------------------------------------------------------------------------------------------
     7000 -1.5624E+05  8.6275E+01 -1.8924E+05 -1.8924E+05  0.0000E+00  0.0000E+00  0.0000E+00  0.0000E+00  0.0000E+00
   7.000p -1.6691E+05  0.0000E+00  9.8028E+04  9.8028E+04  0.0000E+00  0.0000E+00  0.0000E+00  0.0000E+00  0.0000E+00
   5.803s  1.1974E+04  0.0000E+00  0.0000E+00  0.0000E+00  9.0000E+01  9.0000E+01  9.0000E+01  0.0000E+00 -1.2149E-01

  rolling -1.5676E+05  8.6439E+01 -1.8983E+05 -1.8983E+05  0.0000E+00  0.0000E+00  0.0000E+00  0.0000E+00  0.0000E+00
 averages -1.6910E+05  0.0000E+00  1.0314E+05  1.0314E+05  0.0000E+00  0.0000E+00  0.0000E+00  0.0000E+00  0.0000E+00
           1.1974E+04  0.0000E+00  0.0000E+00  0.0000E+00  9.0000E+01  9.0000E+01  9.0000E+01  0.0000E+00 -1.4039E-01
 ------------------------------------------------------------------------------------------------------------------------
     7100 -1.5594E+05  8.6584E+01 -1.8905E+05 -1.8905E+05  0.0000E+00  0.0000E+00  0.0000E+00  0.0000E+00  0.0000E+00
   7.100p -1.6711E+05  0.0000E+00  9.9760E+04  9.9760E+04  0.0000E+00  0.0000E+00  0.0000E+00  0.0000E+00  0.0000E+00
   5.889s  1.1974E+04  0.0000E+00  0.0000E+00  0.0000E+00  9.0000E+01  9.0000E+01  9.0000E+01  0.0000E+00 -1.2716E-01

  rolling -1.5590E+05  8.6530E+01 -1.8900E+05 -1.8900E+05  0.0000E+00  0.0000E+00  0.0000E+00  0.0000E+00  0.0000E+00
 averages -1.6619E+05  0.0000E+00  9.7058E+04  9.7058E+04  0.0000E+00  0.0000E+00  0.0000E+00  0.0000E+00  0.0000E+00
           1.1974E+04  0.0000E+00  0.0000E+00  0.0000E+00  9.0000E+01  9.0000E+01  9.0000E+01  0.0000E+00 -1.1707E-01
 ------------------------------------------------------------------------------------------------------------------------
 ------------------------------------------------------------------------------------------------------------------------

     step     eng_tot    temp_tot     eng_cfg     eng_vdw     eng_cou     eng_bnd     eng_ang     eng_dih     eng_tet
 time          eng_pv    temp_rot     vir_cfg     vir_vdw     vir_cou     vir_bnd     vir_ang     vir_con     vir_tet
 cpu time      volume    temp_shl     eng_shl     vir_shl       alpha        beta       gamma     vir_pmf       press

 ------------------------------------------------------------------------------------------------------------------------
     7200 -1.5535E+05  8.6685E+01 -1.8851E+05 -1.8851E+05  0.0000E+00  0.0000E+00  0.0000E+00  0.0000E+00  0.0000E+00
   7.200p -1.6393E+05  0.0000E+00  9.2063E+04  9.2063E+04  0.0000E+00  0.0000E+00  0.0000E+00  0.0000E+00  0.0000E+00
   5.971s  1.1974E+04  0.0000E+00  0.0000E+00  0.0000E+00  9.0000E+01  9.0000E+01  9.0000E+01  0.0000E+00 -9.7675E-02

  rolling -1.5565E+05  8.6483E+01 -1.8873E+05 -1.8873E+05  0.0000E+00  0.0000E+00  0.0000E+00  0.0000E+00  0.0000E+00
 averages -1.6538E+05  0.0000E+00  9.5371E+04  9.5371E+04  0.0000E+00  0.0000E+00  0.0000E+00  0.0000E+00  0.0000E+00
           1.1974E+04  0.0000E+00  0.0000E+00  0.0000E+00  9.0000E+01  9.0000E+01  9.0000E+01  0.0000E+00 -1.1081E-01
 ------------------------------------------------------------------------------------------------------------------------
     7300 -1.5596E+05  8.6533E+01 -1.8906E+05 -1.8906E+05  0.0000E+00  0.0000E+00  0.0000E+00  0.0000E+00  0.0000E+00
   7.300p -1.6634E+05  0.0000E+00  9.7338E+04  9.7338E+04  0.0000E+00  0.0000E+00  0.0000E+00  0.0000E+00  0.0000E+00
   6.052s  1.1974E+04  0.0000E+00  0.0000E+00  0.0000E+00  9.0000E+01  9.0000E+01  9.0000E+01  0.0000E+00 -1.1813E-01

  rolling -1.5574E+05  8.6632E+01 -1.8887E+05 -1.8887E+05  0.0000E+00  0.0000E+00  0.0000E+00  0.0000E+00  0.0000E+00
 averages -1.6564E+05  0.0000E+00  9.5983E+04  9.5983E+04  0.0000E+00  0.0000E+00  0.0000E+00  0.0000E+00  0.0000E+00
           1.1974E+04  0.0000E+00  0.0000E+00  0.0000E+00  9.0000E+01  9.0000E+01  9.0000E+01  0.0000E+00 -1.1270E-01
 ------------------------------------------------------------------------------------------------------------------------
     7400 -1.5560E+05  8.6838E+01 -1.8882E+05 -1.8882E+05  0.0000E+00  0.0000E+00  0.0000E+00  0.0000E+00  0.0000E+00
   7.400p -1.6409E+05  0.0000E+00  9.1902E+04  9.1902E+04  0.0000E+00  0.0000E+00  0.0000E+00  0.0000E+00  0.0000E+00
   6.134s  1.1974E+04  0.0000E+00  0.0000E+00  0.0000E+00  9.0000E+01  9.0000E+01  9.0000E+01  0.0000E+00 -9.6620E-02

  rolling -1.5567E+05  8.6522E+01 -1.8877E+05 -1.8877E+05  0.0000E+00  0.0000E+00  0.0000E+00  0.0000E+00  0.0000E+00
 averages -1.6427E+05  0.0000E+00  9.1969E+04  9.1969E+04  0.0000E+00  0.0000E+00  0.0000E+00  0.0000E+00  0.0000E+00
           1.1974E+04  0.0000E+00  0.0000E+00  0.0000E+00  9.0000E+01  9.0000E+01  9.0000E+01  0.0000E+00 -9.7791E-02
 ------------------------------------------------------------------------------------------------------------------------
     7500 -1.5711E+05  8.6519E+01 -1.9021E+05 -1.9021E+05  0.0000E+00  0.0000E+00  0.0000E+00  0.0000E+00  0.0000E+00
   7.500p -1.7263E+05  0.0000E+00  1.1273E+05  1.1273E+05  0.0000E+00  0.0000E+00  0.0000E+00  0.0000E+00  0.0000E+00
   6.215s  1.1974E+04  0.0000E+00  0.0000E+00  0.0000E+00  9.0000E+01  9.0000E+01  9.0000E+01  0.0000E+00 -1.7654E-01

  rolling -1.5648E+05  8.6745E+01 -1.8966E+05 -1.8966E+05  0.0000E+00  0.0000E+00  0.0000E+00  0.0000E+00  0.0000E+00
 averages -1.6913E+05  0.0000E+00  1.0433E+05  1.0433E+05  0.0000E+00  0.0000E+00  0.0000E+00  0.0000E+00  0.0000E+00
           1.1974E+04  0.0000E+00  0.0000E+00  0.0000E+00  9.0000E+01  9.0000E+01  9.0000E+01  0.0000E+00 -1.4402E-01
 ------------------------------------------------------------------------------------------------------------------------
     7600 -1.5651E+05  8.6687E+01 -1.8967E+05 -1.8967E+05  0.0000E+00  0.0000E+00  0.0000E+00  0.0000E+00  0.0000E+00
   7.600p -1.6908E+05  0.0000E+00  1.0404E+05  1.0404E+05  0.0000E+00  0.0000E+00  0.0000E+00  0.0000E+00  0.0000E+00
   6.296s  1.1974E+04  0.0000E+00  0.0000E+00  0.0000E+00  9.0000E+01  9.0000E+01  9.0000E+01  0.0000E+00 -1.4309E-01

  rolling -1.5663E+05  8.6494E+01 -1.8971E+05 -1.8971E+05  0.0000E+00  0.0000E+00  0.0000E+00  0.0000E+00  0.0000E+00
 averages -1.6978E+05  0.0000E+00  1.0562E+05  1.0562E+05  0.0000E+00  0.0000E+00  0.0000E+00  0.0000E+00  0.0000E+00
           1.1974E+04  0.0000E+00  0.0000E+00  0.0000E+00  9.0000E+01  9.0000E+01  9.0000E+01  0.0000E+00 -1.4966E-01
 ------------------------------------------------------------------------------------------------------------------------
     7700 -1.5564E+05  8.6000E+01 -1.8854E+05 -1.8854E+05  0.0000E+00  0.0000E+00  0.0000E+00  0.0000E+00  0.0000E+00
   7.700p -1.6243E+05  0.0000E+00  8.6131E+04  8.6131E+04  0.0000E+00  0.0000E+00  0.0000E+00  0.0000E+00  0.0000E+00
   6.378s  1.1974E+04  0.0000E+00  0.0000E+00  0.0000E+00  9.0000E+01  9.0000E+01  9.0000E+01  0.0000E+00 -7.7161E-02

  rolling -1.5628E+05  8.6410E+01 -1.8933E+05 -1.8933E+05  0.0000E+00  0.0000E+00  0.0000E+00  0.0000E+00  0.0000E+00
 averages -1.6695E+05  0.0000E+00  9.8099E+04  9.8099E+04  0.0000E+00  0.0000E+00  0.0000E+00  0.0000E+00  0.0000E+00
           1.1974E+04  0.0000E+00  0.0000E+00  0.0000E+00  9.0000E+01  9.0000E+01  9.0000E+01  0.0000E+00 -1.2137E-01
 ------------------------------------------------------------------------------------------------------------------------
     7800 -1.5540E+05  8.7110E+01 -1.8872E+05 -1.8872E+05  0.0000E+00  0.0000E+00  0.0000E+00  0.0000E+00  0.0000E+00
   7.800p -1.6320E+05  0.0000E+00  9.0040E+04  9.0040E+04  0.0000E+00  0.0000E+00  0.0000E+00  0.0000E+00  0.0000E+00
   6.459s  1.1974E+04  0.0000E+00  0.0000E+00  0.0000E+00  9.0000E+01  9.0000E+01  9.0000E+01  0.0000E+00 -8.8767E-02

  rolling -1.5510E+05  8.6579E+01 -1.8821E+05 -1.8821E+05  0.0000E+00  0.0000E+00  0.0000E+00  0.0000E+00  0.0000E+00
 averages -1.6041E+05  0.0000E+00  8.2165E+04  8.2165E+04  0.0000E+00  0.0000E+00  0.0000E+00  0.0000E+00  0.0000E+00
           1.1974E+04  0.0000E+00  0.0000E+00  0.0000E+00  9.0000E+01  9.0000E+01  9.0000E+01  0.0000E+00 -6.0435E-02
 ------------------------------------------------------------------------------------------------------------------------
     7900 -1.5590E+05  8.5874E+01 -1.8874E+05 -1.8874E+05  0.0000E+00  0.0000E+00  0.0000E+00  0.0000E+00  0.0000E+00
   7.900p -1.6263E+05  0.0000E+00  8.5911E+04  8.5911E+04  0.0000E+00  0.0000E+00  0.0000E+00  0.0000E+00  0.0000E+00
   6.540s  1.1974E+04  0.0000E+00  0.0000E+00  0.0000E+00  9.0000E+01  9.0000E+01  9.0000E+01  0.0000E+00 -7.6691E-02

  rolling -1.5615E+05  8.6564E+01 -1.8926E+05 -1.8926E+05  0.0000E+00  0.0000E+00  0.0000E+00  0.0000E+00  0.0000E+00
 averages -1.6607E+05  0.0000E+00  9.5980E+04  9.5980E+04  0.0000E+00  0.0000E+00  0.0000E+00  0.0000E+00  0.0000E+00
           1.1974E+04  0.0000E+00  0.0000E+00  0.0000E+00  9.0000E+01  9.0000E+01  9.0000E+01  0.0000E+00 -1.1288E-01
 ------------------------------------------------------------------------------------------------------------------------
 ------------------------------------------------------------------------------------------------------------------------

     step     eng_tot    temp_tot     eng_cfg     eng_vdw     eng_cou     eng_bnd     eng_ang     eng_dih     eng_tet
 time          eng_pv    temp_rot     vir_cfg     vir_vdw     vir_cou     vir_bnd     vir_ang     vir_con     vir_tet
 cpu time      volume    temp_shl     eng_shl     vir_shl       alpha        beta       gamma     vir_pmf       press

 ------------------------------------------------------------------------------------------------------------------------
     8000 -1.5495E+05  8.6963E+01 -1.8821E+05 -1.8821E+05  0.0000E+00  0.0000E+00  0.0000E+00  0.0000E+00  0.0000E+00
   8.000p -1.5809E+05  0.0000E+00  7.5934E+04  7.5934E+04  0.0000E+00  0.0000E+00  0.0000E+00  0.0000E+00  0.0000E+00
   6.622s  1.1974E+04  0.0000E+00  0.0000E+00  0.0000E+00  9.0000E+01  9.0000E+01  9.0000E+01  0.0000E+00 -3.5682E-02

  rolling -1.5492E+05  8.6483E+01 -1.8800E+05 -1.8800E+05  0.0000E+00  0.0000E+00  0.0000E+00  0.0000E+00  0.0000E+00
 averages -1.5732E+05  0.0000E+00  7.3373E+04  7.3373E+04  0.0000E+00  0.0000E+00  0.0000E+00  0.0000E+00  0.0000E+00
           1.1974E+04  0.0000E+00  0.0000E+00  0.0000E+00  9.0000E+01  9.0000E+01  9.0000E+01  0.0000E+00 -2.7366E-02
 ------------------------------------------------------------------------------------------------------------------------
     8100 -1.5491E+05  8.6052E+01 -1.8782E+05 -1.8782E+05  0.0000E+00  0.0000E+00  0.0000E+00  0.0000E+00  0.0000E+00
   8.100p -1.5655E+05  0.0000E+00  7.0761E+04  7.0761E+04  0.0000E+00  0.0000E+00  0.0000E+00  0.0000E+00  0.0000E+00
   6.708s  1.1974E+04  0.0000E+00  0.0000E+00  0.0000E+00  9.0000E+01  9.0000E+01  9.0000E+01  0.0000E+00 -1.8705E-02

[...]
 averages -1.5033E+05  0.0000E+00  5.7512E+04  5.7512E+04  0.0000E+00  0.0000E+00  0.0000E+00  0.0000E+00  0.0000E+00
           1.1974E+04  0.0000E+00  0.0000E+00  0.0000E+00  9.0000E+01  9.0000E+01  9.0000E+01  0.0000E+00  3.6578E-02
 ------------------------------------------------------------------------------------------------------------------------
    39000 -1.5352E+05  8.5011E+01 -1.8604E+05 -1.8604E+05  0.0000E+00  0.0000E+00  0.0000E+00  0.0000E+00  0.0000E+00
  39.000p -1.4394E+05  0.0000E+00  3.6298E+04  3.6298E+04  0.0000E+00  0.0000E+00  0.0000E+00  0.0000E+00  0.0000E+00
  32.366s  1.1974E+04  0.0000E+00  0.0000E+00  0.0000E+00  9.0000E+01  9.0000E+01  9.0000E+01  0.0000E+00  1.0900E-01

  rolling -1.5354E+05  8.3671E+01 -1.8554E+05 -1.8554E+05  0.0000E+00  0.0000E+00  0.0000E+00  0.0000E+00  0.0000E+00
 averages -1.4204E+05  0.0000E+00  2.9520E+04  2.9520E+04  0.0000E+00  0.0000E+00  0.0000E+00  0.0000E+00  0.0000E+00
           1.1974E+04  0.0000E+00  0.0000E+00  0.0000E+00  9.0000E+01  9.0000E+01  9.0000E+01  0.0000E+00  1.3082E-01
 ------------------------------------------------------------------------------------------------------------------------
    39100 -1.5352E+05  8.6520E+01 -1.8661E+05 -1.8661E+05  0.0000E+00  0.0000E+00  0.0000E+00  0.0000E+00  0.0000E+00
  39.100p -1.4810E+05  0.0000E+00  4.9947E+04  4.9947E+04  0.0000E+00  0.0000E+00  0.0000E+00  0.0000E+00  0.0000E+00
  32.454s  1.1974E+04  0.0000E+00  0.0000E+00  0.0000E+00  9.0000E+01  9.0000E+01  9.0000E+01  0.0000E+00  6.1607E-02

  rolling -1.5350E+05  8.7028E+01 -1.8679E+05 -1.8679E+05  0.0000E+00  0.0000E+00  0.0000E+00  0.0000E+00  0.0000E+00
 averages -1.4789E+05  0.0000E+00  4.9734E+04  4.9734E+04  0.0000E+00  0.0000E+00  0.0000E+00  0.0000E+00  0.0000E+00
           1.1974E+04  0.0000E+00  0.0000E+00  0.0000E+00  9.0000E+01  9.0000E+01  9.0000E+01  0.0000E+00  6.3886E-02
 ------------------------------------------------------------------------------------------------------------------------
 ------------------------------------------------------------------------------------------------------------------------

     step     eng_tot    temp_tot     eng_cfg     eng_vdw     eng_cou     eng_bnd     eng_ang     eng_dih     eng_tet
 time          eng_pv    temp_rot     vir_cfg     vir_vdw     vir_cou     vir_bnd     vir_ang     vir_con     vir_tet
 cpu time      volume    temp_shl     eng_shl     vir_shl       alpha        beta       gamma     vir_pmf       press

 ------------------------------------------------------------------------------------------------------------------------
    39200 -1.5352E+05  8.3516E+01 -1.8547E+05 -1.8547E+05  0.0000E+00  0.0000E+00  0.0000E+00  0.0000E+00  0.0000E+00
  39.200p -1.4513E+05  0.0000E+00  3.8728E+04  3.8728E+04  0.0000E+00  0.0000E+00  0.0000E+00  0.0000E+00  0.0000E+00
  32.537s  1.1974E+04  0.0000E+00  0.0000E+00  0.0000E+00  9.0000E+01  9.0000E+01  9.0000E+01  0.0000E+00  9.5444E-02

  rolling -1.5351E+05  8.4197E+01 -1.8572E+05 -1.8572E+05  0.0000E+00  0.0000E+00  0.0000E+00  0.0000E+00  0.0000E+00
 averages -1.4535E+05  0.0000E+00  3.9923E+04  3.9923E+04  0.0000E+00  0.0000E+00  0.0000E+00  0.0000E+00  0.0000E+00
           1.1974E+04  0.0000E+00  0.0000E+00  0.0000E+00  9.0000E+01  9.0000E+01  9.0000E+01  0.0000E+00  9.2890E-02
 ------------------------------------------------------------------------------------------------------------------------
    39300 -1.5353E+05  8.8906E+01 -1.8753E+05 -1.8753E+05  0.0000E+00  0.0000E+00  0.0000E+00  0.0000E+00  0.0000E+00
  39.300p -1.5383E+05  0.0000E+00  6.8915E+04  6.8915E+04  0.0000E+00  0.0000E+00  0.0000E+00  0.0000E+00  0.0000E+00
  32.620s  1.1974E+04  0.0000E+00  0.0000E+00  0.0000E+00  9.0000E+01  9.0000E+01  9.0000E+01  0.0000E+00 -3.4201E-03

  rolling -1.5353E+05  8.6530E+01 -1.8663E+05 -1.8663E+05  0.0000E+00  0.0000E+00  0.0000E+00  0.0000E+00  0.0000E+00
 averages -1.5025E+05  0.0000E+00  5.6356E+04  5.6356E+04  0.0000E+00  0.0000E+00  0.0000E+00  0.0000E+00  0.0000E+00
           1.1974E+04  0.0000E+00  0.0000E+00  0.0000E+00  9.0000E+01  9.0000E+01  9.0000E+01  0.0000E+00  3.7323E-02
 ------------------------------------------------------------------------------------------------------------------------
    39400 -1.5356E+05  8.6052E+01 -1.8647E+05 -1.8647E+05  0.0000E+00  0.0000E+00  0.0000E+00  0.0000E+00  0.0000E+00
  39.400p -1.4710E+05  0.0000E+00  4.6451E+04  4.6451E+04  0.0000E+00  0.0000E+00  0.0000E+00  0.0000E+00  0.0000E+00
  32.703s  1.1974E+04  0.0000E+00  0.0000E+00  0.0000E+00  9.0000E+01  9.0000E+01  9.0000E+01  0.0000E+00  7.3509E-02

  rolling -1.5353E+05  8.7391E+01 -1.8695E+05 -1.8695E+05  0.0000E+00  0.0000E+00  0.0000E+00  0.0000E+00  0.0000E+00
 averages -1.5037E+05  0.0000E+00  5.7376E+04  5.7376E+04  0.0000E+00  0.0000E+00  0.0000E+00  0.0000E+00  0.0000E+00
           1.1974E+04  0.0000E+00  0.0000E+00  0.0000E+00  9.0000E+01  9.0000E+01  9.0000E+01  0.0000E+00  3.5953E-02
 ------------------------------------------------------------------------------------------------------------------------
    39500 -1.5355E+05  8.2010E+01 -1.8492E+05 -1.8492E+05  0.0000E+00  0.0000E+00  0.0000E+00  0.0000E+00  0.0000E+00
  39.500p -1.3947E+05  0.0000E+00  2.0493E+04  2.0493E+04  0.0000E+00  0.0000E+00  0.0000E+00  0.0000E+00  0.0000E+00
  32.785s  1.1974E+04  0.0000E+00  0.0000E+00  0.0000E+00  9.0000E+01  9.0000E+01  9.0000E+01  0.0000E+00  1.6025E-01

  rolling -1.5356E+05  8.3742E+01 -1.8559E+05 -1.8559E+05  0.0000E+00  0.0000E+00  0.0000E+00  0.0000E+00  0.0000E+00
 averages -1.4268E+05  0.0000E+00  3.1443E+04  3.1443E+04  0.0000E+00  0.0000E+00  0.0000E+00  0.0000E+00  0.0000E+00
           1.1974E+04  0.0000E+00  0.0000E+00  0.0000E+00  9.0000E+01  9.0000E+01  9.0000E+01  0.0000E+00  1.2374E-01
 ------------------------------------------------------------------------------------------------------------------------
    39600 -1.5353E+05  8.0276E+01 -1.8423E+05 -1.8423E+05  0.0000E+00  0.0000E+00  0.0000E+00  0.0000E+00  0.0000E+00
  39.600p -1.3579E+05  0.0000E+00  8.2085E+03  8.2085E+03  0.0000E+00  0.0000E+00  0.0000E+00  0.0000E+00  0.0000E+00
  32.868s  1.1974E+04  0.0000E+00  0.0000E+00  0.0000E+00  9.0000E+01  9.0000E+01  9.0000E+01  0.0000E+00  2.0181E-01

  rolling -1.5354E+05  8.1376E+01 -1.8466E+05 -1.8466E+05  0.0000E+00  0.0000E+00  0.0000E+00  0.0000E+00  0.0000E+00
 averages -1.3802E+05  0.0000E+00  1.5707E+04  1.5707E+04  0.0000E+00  0.0000E+00  0.0000E+00  0.0000E+00  0.0000E+00
           1.1974E+04  0.0000E+00  0.0000E+00  0.0000E+00  9.0000E+01  9.0000E+01  9.0000E+01  0.0000E+00  1.7656E-01
 ------------------------------------------------------------------------------------------------------------------------
    39700 -1.5353E+05  8.4327E+01 -1.8579E+05 -1.8579E+05  0.0000E+00  0.0000E+00  0.0000E+00  0.0000E+00  0.0000E+00
  39.700p -1.4127E+05  0.0000E+00  2.7714E+04  2.7714E+04  0.0000E+00  0.0000E+00  0.0000E+00  0.0000E+00  0.0000E+00
  32.951s  1.1974E+04  0.0000E+00  0.0000E+00  0.0000E+00  9.0000E+01  9.0000E+01  9.0000E+01  0.0000E+00  1.3958E-01

  rolling -1.5352E+05  8.2080E+01 -1.8492E+05 -1.8492E+05  0.0000E+00  0.0000E+00  0.0000E+00  0.0000E+00  0.0000E+00
 averages -1.3803E+05  0.0000E+00  1.6317E+04  1.6317E+04  0.0000E+00  0.0000E+00  0.0000E+00  0.0000E+00  0.0000E+00
           1.1974E+04  0.0000E+00  0.0000E+00  0.0000E+00  9.0000E+01  9.0000E+01  9.0000E+01  0.0000E+00  1.7629E-01
 ------------------------------------------------------------------------------------------------------------------------
    39800 -1.5355E+05  8.9418E+01 -1.8776E+05 -1.8776E+05  0.0000E+00  0.0000E+00  0.0000E+00  0.0000E+00  0.0000E+00
  39.800p -1.4932E+05  0.0000E+00  5.5696E+04  5.5696E+04  0.0000E+00  0.0000E+00  0.0000E+00  0.0000E+00  0.0000E+00
  33.034s  1.1974E+04  0.0000E+00  0.0000E+00  0.0000E+00  9.0000E+01  9.0000E+01  9.0000E+01  0.0000E+00  4.8206E-02

  rolling -1.5354E+05  8.7097E+01 -1.8685E+05 -1.8685E+05  0.0000E+00  0.0000E+00  0.0000E+00  0.0000E+00  0.0000E+00
 averages -1.4562E+05  0.0000E+00  4.2882E+04  4.2882E+04  0.0000E+00  0.0000E+00  0.0000E+00  0.0000E+00  0.0000E+00
           1.1974E+04  0.0000E+00  0.0000E+00  0.0000E+00  9.0000E+01  9.0000E+01  9.0000E+01  0.0000E+00  9.0079E-02
 ------------------------------------------------------------------------------------------------------------------------
    39900 -1.5355E+05  8.4448E+01 -1.8585E+05 -1.8585E+05  0.0000E+00  0.0000E+00  0.0000E+00  0.0000E+00  0.0000E+00
  39.900p -1.4168E+05  0.0000E+00  2.9009E+04  2.9009E+04  0.0000E+00  0.0000E+00  0.0000E+00  0.0000E+00  0.0000E+00
  33.117s  1.1974E+04  0.0000E+00  0.0000E+00  0.0000E+00  9.0000E+01  9.0000E+01  9.0000E+01  0.0000E+00  1.3502E-01

  rolling -1.5354E+05  8.7605E+01 -1.8705E+05 -1.8705E+05  0.0000E+00  0.0000E+00  0.0000E+00  0.0000E+00  0.0000E+00
 averages -1.4647E+05  0.0000E+00  4.5806E+04  4.5806E+04  0.0000E+00  0.0000E+00  0.0000E+00  0.0000E+00  0.0000E+00
           1.1974E+04  0.0000E+00  0.0000E+00  0.0000E+00  9.0000E+01  9.0000E+01  9.0000E+01  0.0000E+00  8.0463E-02
 ------------------------------------------------------------------------------------------------------------------------
 ------------------------------------------------------------------------------------------------------------------------

     step     eng_tot    temp_tot     eng_cfg     eng_vdw     eng_cou     eng_bnd     eng_ang     eng_dih     eng_tet
 time          eng_pv    temp_rot     vir_cfg     vir_vdw     vir_cou     vir_bnd     vir_ang     vir_con     vir_tet
 cpu time      volume    temp_shl     eng_shl     vir_shl       alpha        beta       gamma     vir_pmf       press

 ------------------------------------------------------------------------------------------------------------------------
    40000 -1.5351E+05  8.4053E+01 -1.8566E+05 -1.8566E+05  0.0000E+00  0.0000E+00  0.0000E+00  0.0000E+00  0.0000E+00
  40.000p -1.4262E+05  0.0000E+00  3.1654E+04  3.1654E+04  0.0000E+00  0.0000E+00  0.0000E+00  0.0000E+00  0.0000E+00
  33.200s  1.1974E+04  0.0000E+00  0.0000E+00  0.0000E+00  9.0000E+01  9.0000E+01  9.0000E+01  0.0000E+00  1.2384E-01

  rolling -1.5353E+05  8.3037E+01 -1.8530E+05 -1.8530E+05  0.0000E+00  0.0000E+00  0.0000E+00  0.0000E+00  0.0000E+00
 averages -1.4012E+05  0.0000E+00  2.3287E+04  2.3287E+04  0.0000E+00  0.0000E+00  0.0000E+00  0.0000E+00  0.0000E+00
           1.1974E+04  0.0000E+00  0.0000E+00  0.0000E+00  9.0000E+01  9.0000E+01  9.0000E+01  0.0000E+00  1.5263E-01
 ------------------------------------------------------------------------------------------------------------------------


 run terminating. elapsed cpu time =   3.32000E+01, job time =   1.000h, close time = 1000.00s



 run terminated after   40000 steps. final averages calculated over   20000 steps.


 ------------------------------------------------------------------------------------------------------------------------

     step     eng_tot    temp_tot     eng_cfg     eng_vdw     eng_cou     eng_bnd     eng_ang     eng_dih     eng_tet
 time          eng_pv    temp_rot     vir_cfg     vir_vdw     vir_cou     vir_bnd     vir_ang     vir_con     vir_tet
 cpu time      volume    temp_shl     eng_shl     vir_shl       alpha        beta       gamma     vir_pmf       press

 ------------------------------------------------------------------------------------------------------------------------
    40000 -1.5357E+05  8.7162E+01 -1.8691E+05 -1.8691E+05  0.0000E+00  0.0000E+00  0.0000E+00  0.0000E+00  0.0000E+00
  40.000p -1.4905E+05  0.0000E+00  5.3134E+04  5.3134E+04  0.0000E+00  0.0000E+00  0.0000E+00  0.0000E+00  0.0000E+00
  33.205s  1.1974E+04  0.0000E+00  0.0000E+00  0.0000E+00  9.0000E+01  9.0000E+01  9.0000E+01  0.0000E+00  5.1381E-02

  r.m.s.   4.2335E+01  2.8992E+00  1.1098E+03  1.1098E+03  0.0000E+00  0.0000E+00  0.0000E+00  0.0000E+00  0.0000E+00
 fluctn.   6.0028E+03  0.0000E+00  2.0065E+04  2.0065E+04  0.0000E+00  0.0000E+00  0.0000E+00  0.0000E+00  0.0000E+00
           7.2057E-11  0.0000E+00  0.0000E+00  0.0000E+00  2.3824E-13  2.3824E-13  2.3824E-13  0.0000E+00  6.8293E-02
 ------------------------------------------------------------------------------------------------------------------------


            Approximate 3D Diffusion  coefficients (10^-9 m^2 / s)

            atom        D 
            A          1.7742E+00


                Average pressure tensor                                       r.m.s. fluctuations 

           3.6504E-02  1.4945E-02 -1.3291E-02                          1.4248E-01  1.1102E-01  1.0200E-01
           1.4945E-02  6.0111E-02  3.7064E-04                          1.1102E-01  1.4891E-01  8.5948E-02
          -1.3291E-02  3.7064E-04  5.7528E-02                          1.0200E-01  8.5948E-02  1.2207E-01

            trace/3.   5.1381E-02


 sample of final configuration

      i       x(i)        y(i)        z(i)       vx(i)       vy(i)       vz(i)       fx(i)       fy(i)       fz(i)


      1  1.0411E+01 -1.7457E+00  7.7308E+00  1.0070E+00 -5.4047E-01  1.7895E+00  4.6771E+02  5.4717E+02 -1.0251E+03
     14 -1.0559E+01 -4.0226E+00  9.6004E+00 -9.6092E-02  5.1368E-01  1.6280E+00  8.1523E+01 -7.6541E+02 -4.8235E+02
     27 -9.7511E+00 -8.2599E+00 -1.4319E+00  1.5909E+00  7.6469E-01 -1.4215E+00 -6.8098E+00 -2.7495E+02  2.3866E+02
     40  8.4528E+00 -1.0453E+01  6.6961E+00  2.6275E-01 -4.2172E-01 -2.4049E+00 -2.9323E+02  5.2010E+01  2.5449E+02
     53 -5.1997E+00  5.6186E+00 -4.0711E+00 -2.3093E+00  9.4643E-01  1.8011E-01 -1.3652E+02 -1.9983E+01 -1.2381E+02
     66 -1.1083E+01 -4.6226E+00  5.8942E+00  1.5476E+00 -1.0551E-01 -1.7844E+00  1.0538E+02  8.3575E+02 -3.3349E+02
     79 -7.8391E-01 -6.7719E+00 -2.8487E+00  5.5714E-01  1.8796E+00  8.1747E-01 -1.1017E+03 -1.8889E+02 -3.7289E+02
     92  2.3186E+00 -7.8276E+00  8.4930E+00 -1.6816E-01 -8.0102E-01 -1.0108E+00  8.0666E+02 -6.4386E+02 -5.0248E+02
    105 -9.5078E+00  1.6590E+00 -3.1877E+00  1.0916E-01  2.0377E+00  4.9550E-01 -4.4635E+02 -8.7759E+01 -2.2800E+02
    118  5.8958E+00 -7.2788E+00  1.6654E+00  7.0186E-01 -1.3868E-01  1.2528E+00 -5.7476E+00  1.7977E+02 -1.3471E+02
    131 -5.0022E+00 -2.5718E+00  7.0830E+00  9.7474E-01 -7.6656E-01  2.3838E+00 -1.5920E+02  4.6986E+02 -3.4625E+01
    144  3.7672E+00 -1.3546E+00  7.1391E+00 -2.2498E+00 -3.1263E+00 -1.5841E+00 -5.9076E+02  1.1060E+02 -4.8882E+01
    157  1.0966E+01 -3.3816E+00 -3.5658E+00 -1.3544E+00  1.5183E+00 -2.5739E+00  2.0260E+02 -2.7418E+02 -4.4377E+02
    170  3.4846E+00  2.2895E+00  5.9359E+00  1.6376E+00 -6.9480E-01 -2.0841E+00  3.4663E+02  1.1973E+02 -3.1659E+02
    183 -2.1341E-01 -1.4809E+00 -8.8617E+00 -1.9084E+00  3.5612E-03  4.8687E-02  1.2372E+02 -2.1953E+02 -1.3074E+02
    196 -1.0710E+01  6.7776E+00 -8.1706E+00 -2.4968E+00 -5.3535E-01  8.2447E-01 -1.6683E+02 -1.6249E+02 -6.5279E+02
    209 -5.5245E+00  3.4859E+00  5.3387E+00 -1.1449E+00  6.4046E-01 -4.4672E-03  3.1412E+02 -1.7808E+02 -1.2558E+02
    222  7.3135E+00  3.2208E+00  5.5544E+00 -1.2485E+00  1.0187E+00  5.6390E-01  3.7179E+01  1.3104E+02  1.0875E+02
    235 -9.6028E+00 -1.0033E+01 -6.2957E+00 -1.9042E-01 -5.1892E-01 -2.3051E+00 -2.0400E+02  4.6157E+02  3.0897E+02
    248 -6.2257E+00  2.3360E+00 -2.2468E+00 -1.5721E+00 -5.9027E-01 -1.4131E+00  6.3131E+02  4.9271E+02 -2.3127E+02


            RADIAL DISTRIBUTION FUNCTIONS

calculated using       2000 configurations

g(r)  :A       A       

        r      g(r)         n(r)

    2.9250  0.000000E+00  0.000000E+00
    2.9750  0.000000E+00  0.000000E+00
    3.0250  9.533057E-05  1.171875E-05
    3.0750  7.072934E-04  1.015625E-04
    3.1250  4.406807E-03  6.796875E-04
    3.1750  2.195128E-02  3.652344E-03
    3.2250  8.974463E-02  1.619141E-02
    3.2750  2.572804E-01  5.326172E-02
    3.3250  5.365501E-01  1.329492E-01
    3.3750  9.505335E-01  2.783984E-01
    3.4250  1.431164E+00  5.039297E-01
    3.4750  1.921238E+00  8.155937E-01
    3.5250  2.376997E+00  1.212367E+00
    3.5750  2.728807E+00  1.680879E+00
    3.6250  2.909234E+00  2.194438E+00
    3.6750  2.981560E+00  2.735383E+00
    3.7250  3.002814E+00  3.295109E+00
    3.7750  2.901025E+00  3.850477E+00
    3.8250  2.765835E+00  4.394082E+00
    3.8750  2.600960E+00  4.918734E+00
    3.9250  2.425925E+00  5.420789E+00
    3.9750  2.222693E+00  5.892578E+00
    4.0250  2.018122E+00  6.331789E+00
    4.0750  1.874377E+00  6.749914E+00
    4.1250  1.706155E+00  7.139910E+00
    4.1750  1.536131E+00  7.499605E+00
    4.2250  1.434227E+00  7.843531E+00
    4.2750  1.311741E+00  8.165574E+00
    4.3250  1.208650E+00  8.469289E+00
    4.3750  1.122724E+00  8.757973E+00
    4.4250  1.056181E+00  9.035789E+00
    4.4750  9.750503E-01  9.298094E+00
    4.5250  9.030930E-01  9.546500E+00
    4.5750  8.472710E-01  9.784730E+00
    4.6250  8.036302E-01  1.001566E+01
    4.6750  7.691565E-01  1.024148E+01
    4.7250  7.234636E-01  1.045846E+01
    4.7750  6.902186E-01  1.066987E+01
    4.8250  6.784359E-01  1.088204E+01
    4.8750  6.547535E-01  1.109108E+01
    4.9250  6.304255E-01  1.129650E+01
    4.9750  6.205666E-01  1.150283E+01
    5.0250  6.121709E-01  1.171048E+01
    5.0750  5.883472E-01  1.191404E+01
    5.1250  5.889795E-01  1.212186E+01
    5.1750  5.761115E-01  1.232912E+01
    5.2250  5.692390E-01  1.253789E+01
    5.2750  5.817192E-01  1.275533E+01
    5.3250  5.691235E-01  1.297212E+01
    5.3750  5.759465E-01  1.319565E+01
    5.4250  5.840725E-01  1.342657E+01
    5.4750  5.940089E-01  1.366576E+01
    5.5250  5.971665E-01  1.391064E+01
    5.5750  6.150942E-01  1.416746E+01
    5.6250  6.282954E-01  1.443451E+01
    5.6750  6.477456E-01  1.471475E+01
    5.7250  6.666719E-01  1.500828E+01
    5.7750  6.911349E-01  1.531792E+01
    5.8250  7.160002E-01  1.564428E+01
    5.8750  7.417843E-01  1.598822E+01
    5.9250  7.686209E-01  1.635070E+01
    5.9750  7.979370E-01  1.673338E+01
    6.0250  8.315852E-01  1.713890E+01
    6.0750  8.775662E-01  1.757397E+01
    6.1250  9.089427E-01  1.803205E+01
    6.1750  9.375829E-01  1.851231E+01
    6.2250  9.729485E-01  1.901879E+01
    6.2750  1.000537E+00  1.954802E+01
    6.3250  1.037550E+00  2.010562E+01
    6.3750  1.074822E+00  2.069242E+01
    6.4250  1.098500E+00  2.130159E+01
    6.4750  1.130747E+00  2.193843E+01
    6.5250  1.152127E+00  2.259738E+01
    6.5750  1.175547E+00  2.328007E+01
    6.6250  1.175797E+00  2.397333E+01
    6.6750  1.201981E+00  2.469276E+01
    6.7250  1.207559E+00  2.542640E+01
    6.7750  1.232670E+00  2.618648E+01
    6.8250  1.254697E+00  2.697159E+01
    6.8750  1.267249E+00  2.777623E+01
    6.9250  1.270644E+00  2.859479E+01
    6.9750  1.269264E+00  2.942432E+01
    7.0250  1.281323E+00  3.027378E+01
    7.0750  1.280640E+00  3.113491E+01
    7.1250  1.283768E+00  3.201039E+01
    7.1750  1.286374E+00  3.290000E+01
    7.2250  1.272508E+00  3.379234E+01
    7.2750  1.269087E+00  3.469463E+01
    7.3250  1.256417E+00  3.560023E+01
    7.3750  1.236567E+00  3.650374E+01
    7.4250  1.210338E+00  3.740012E+01
    7.4750  1.190110E+00  3.829342E+01
    7.5250  1.161781E+00  3.917717E+01
    7.5750  1.128855E+00  4.004732E+01
    7.6250  1.106922E+00  4.091186E+01
    7.6750  1.086455E+00  4.177158E+01
    7.7250  1.056415E+00  4.261846E+01
    7.7750  1.036964E+00  4.346054E+01
    7.8250  1.012015E+00  4.429297E+01
    7.8750  9.895128E-01  4.511732E+01
    7.9250  9.624775E-01  4.592936E+01
    7.9750  9.422353E-01  4.673439E+01
    8.0250  9.277899E-01  4.753705E+01
    8.0750  9.037111E-01  4.832864E+01
    8.1250  8.846809E-01  4.911320E+01
    8.1750  8.701504E-01  4.989439E+01
    8.2250  8.623584E-01  5.067809E+01
    8.2750  8.522490E-01  5.146205E+01
    8.3250  8.345197E-01  5.223900E+01
    8.3750  8.307663E-01  5.302178E+01
    8.4250  8.252937E-01  5.380871E+01
    8.4750  8.196168E-01  5.459954E+01

 time elapsed since job start =          33.207 seconds

