
                    DL_POLY Classic 1.9

                              Running on    8 nodes


 ************************************************************************************************************************
 ************************************************************************************************************************
 ************************************************************************************************************************
 ***************     ex8                                                                                  ***************
 ************************************************************************************************************************
 ************************************************************************************************************************
 ************************************************************************************************************************


 SIMULATION CONTROL PARAMETERS


 simulation temperature           1.1980E+02

 selected number of timesteps        40000

 simulation timestep              6.0000E-03


 electrostatic potential terms off

 border width of Verlet shell     1.0000E+00

 real space cut off               8.5000E+00

 real space cut off (vdw)         8.5000E+00


 radial distribution functions on 
 g(r) collection interval                5
 g(r) bin width                   5.0000E-02

 g(r) printing option on      

 Nose-Hoover 
 thermostat relaxation time       2.0000E+00

 data printing interval                100

 statistics file interval                1

 user allocated job time (h)      1.0000

 job closure time        (s)    1000.000


SYSTEM SPECIFICATION

 energy units=electron volts 


 number of molecular types               1

 molecular species type                  1


 name of species:             argon                                   

 number of molecules                   256

 number of atoms/sites                   1


 atomic characteristics:

                      site     name          mass        charge    repeat    freeze

                         1     Ar          39.95000     0.00000         1         0


 number of specified pair potentials         1


                atom 1  atom 2      key                              parameters


                Ar      Ar        nm       1.03236E-02  1.20000E+01  6.00000E+00  3.82198E+00

 configuration file name: 

          ex7                                                                             


 selected image convention               1


 simulation cell vectors


                        22.877600    0.000000    0.000000
                         0.000000   22.877600    0.000000
                         0.000000    0.000000   22.877600


 system volume            11973.7831077    


 total degrees of freedom                       765.
 rotational degrees of freedom                    0.
 shell pseudo degrees of freedom                  0.


 sample of starting configuration

      i       x(i)        y(i)        z(i)       vx(i)       vy(i)       vz(i)


      1  6.5996E+00 -3.6224E+00  8.1027E+00  3.2727E+00 -8.1157E-01 -1.6705E+00
     14 -1.0073E+01 -3.0031E+00  1.0536E+01 -4.2014E+00 -5.4101E-01 -3.3415E-01
     27 -7.7588E+00 -5.2980E+00 -6.5625E+00 -4.4163E-01 -1.4114E+00  9.4921E-02
     40  7.3829E+00 -1.0784E+01  6.0369E+00  3.0449E+00  1.1256E+00 -2.7397E-01
     53 -4.0737E+00  8.7281E+00 -6.1527E+00 -7.8205E-02  1.9754E+00  1.6740E+00
     66  9.7191E+00 -2.2744E+00  6.5486E+00  2.2247E-01  6.4046E-02 -8.9439E-01
     79 -4.5905E+00  8.0929E-01 -4.4544E+00  3.6264E-01 -1.6773E-01 -8.7458E-01
     92  3.0857E-01 -5.5898E+00  9.8558E+00  7.4311E-02  6.6915E-01  1.2864E-01
    105 -6.9340E+00 -4.3802E+00  7.2725E-01 -2.5719E+00 -2.3476E+00 -9.7288E-02
    118  7.4056E+00 -9.5620E+00  2.8489E+00 -2.9761E-01 -2.8284E+00  9.1753E-01
    131 -8.4588E+00 -7.2073E+00 -9.3915E+00 -7.9454E-01 -4.8693E+00  3.2990E+00
    144  8.2926E+00 -5.5806E+00  1.0341E+01 -9.1435E-02 -4.4473E-01 -7.7208E-01
    157  1.0550E+01  1.1169E+00 -4.6792E+00 -1.6043E-01 -8.2186E-01  7.1082E-01
    170  5.1697E+00  2.9715E+00  1.5577E+00 -2.4392E+00 -1.2685E+00 -6.8048E-01
    183  3.8762E+00 -8.1836E+00 -5.2186E+00 -4.8393E-01  5.5466E-01  4.1328E-01
    196  9.3622E+00  8.7950E+00 -5.8684E+00  8.7885E-02 -1.1424E+00 -8.1486E-01
    209 -6.1377E+00  2.2481E+00  7.7985E+00  1.2801E+00  1.6978E+00  2.7161E+00
    222  8.3088E-01  4.0031E+00  6.1811E+00  4.0610E-01  2.6513E-01 -2.6441E+00
    235  8.2421E+00 -7.8999E+00 -6.2079E+00 -9.3261E-02  6.2371E-01 -9.3502E-01
    248 -1.0312E+01  2.9875E+00  1.0317E+00  7.1739E-01 -1.7820E+00  2.8844E+00


long range correction for: vdw energy    -0.119962E+01
                         : vdw pressure  -0.316401E+00

 time elapsed since job start =           0.014 seconds

 ------------------------------------------------------------------------------------------------------------------------

     step     eng_tot    temp_tot     eng_cfg     eng_vdw     eng_cou     eng_bnd     eng_ang     eng_dih     eng_tet
 time          eng_pv    temp_rot     vir_cfg     vir_vdw     vir_cou     vir_bnd     vir_ang     vir_con     vir_tet
 cpu time      volume    temp_shl     eng_shl     vir_shl       alpha        beta       gamma     vir_pmf       press

 ------------------------------------------------------------------------------------------------------------------------
        1 -1.1940E+01  1.1943E+02 -1.5877E+01 -1.5877E+01  0.0000E+00  0.0000E+00  0.0000E+00  0.0000E+00  0.0000E+00
   6.000f -9.5313E+00  0.0000E+00  6.4644E-01  6.4644E-01  0.0000E+00  0.0000E+00  0.0000E+00  0.0000E+00  0.0000E+00
   0.014s  1.1974E+04  0.0000E+00  0.0000E+00  0.0000E+00  9.0000E+01  9.0000E+01  9.0000E+01  0.0000E+00  3.1811E-01

  rolling -1.1940E+01  1.1943E+02 -1.5877E+01 -1.5877E+01  0.0000E+00  0.0000E+00  0.0000E+00  0.0000E+00  0.0000E+00
 averages -9.5313E+00  0.0000E+00  6.4644E-01  6.4644E-01  0.0000E+00  0.0000E+00  0.0000E+00  0.0000E+00  0.0000E+00
           1.1974E+04  0.0000E+00  0.0000E+00  0.0000E+00  9.0000E+01  9.0000E+01  9.0000E+01  0.0000E+00  3.1811E-01
 ------------------------------------------------------------------------------------------------------------------------
      100 -1.1934E+01  1.0692E+02 -1.5434E+01 -1.5434E+01  0.0000E+00  0.0000E+00  0.0000E+00  0.0000E+00  0.0000E+00
 600.000f -7.3249E+00  0.0000E+00 -6.7063E+00 -6.7063E+00  0.0000E+00  0.0000E+00  0.0000E+00  0.0000E+00  0.0000E+00
   0.050s  1.1974E+04  0.0000E+00  0.0000E+00  0.0000E+00  9.0000E+01  9.0000E+01  9.0000E+01  0.0000E+00  6.0548E-01

  rolling -1.1932E+01  1.1056E+02 -1.5569E+01 -1.5569E+01  0.0000E+00  0.0000E+00  0.0000E+00  0.0000E+00  0.0000E+00
 averages -7.8830E+00  0.0000E+00 -4.8372E+00 -4.8372E+00  0.0000E+00  0.0000E+00  0.0000E+00  0.0000E+00  0.0000E+00
           1.1974E+04  0.0000E+00  0.0000E+00  0.0000E+00  9.0000E+01  9.0000E+01  9.0000E+01  0.0000E+00  5.3378E-01
 ------------------------------------------------------------------------------------------------------------------------
      200 -1.1932E+01  1.1542E+02 -1.5636E+01 -1.5636E+01  0.0000E+00  0.0000E+00  0.0000E+00  0.0000E+00  0.0000E+00
   1.200p -7.9005E+00  0.0000E+00 -4.1857E+00 -4.1857E+00  0.0000E+00  0.0000E+00  0.0000E+00  0.0000E+00  0.0000E+00
   0.088s  1.1974E+04  0.0000E+00  0.0000E+00  0.0000E+00  9.0000E+01  9.0000E+01  9.0000E+01  0.0000E+00  5.1917E-01

  rolling -1.1930E+01  1.1245E+02 -1.5578E+01 -1.5578E+01  0.0000E+00  0.0000E+00  0.0000E+00  0.0000E+00  0.0000E+00
 averages -7.7539E+00  0.0000E+00 -4.9401E+00 -4.9401E+00  0.0000E+00  0.0000E+00  0.0000E+00  0.0000E+00  0.0000E+00
           1.1974E+04  0.0000E+00  0.0000E+00  0.0000E+00  9.0000E+01  9.0000E+01  9.0000E+01  0.0000E+00  5.4377E-01
 ------------------------------------------------------------------------------------------------------------------------
      300 -1.1934E+01  1.2072E+02 -1.5699E+01 -1.5699E+01  0.0000E+00  0.0000E+00  0.0000E+00  0.0000E+00  0.0000E+00
   1.800p -8.5571E+00  0.0000E+00 -1.5305E+00 -1.5305E+00  0.0000E+00  0.0000E+00  0.0000E+00  0.0000E+00  0.0000E+00
   0.125s  1.1974E+04  0.0000E+00  0.0000E+00  0.0000E+00  9.0000E+01  9.0000E+01  9.0000E+01  0.0000E+00  4.1767E-01

  rolling -1.1933E+01  1.1228E+02 -1.5480E+01 -1.5480E+01  0.0000E+00  0.0000E+00  0.0000E+00  0.0000E+00  0.0000E+00
 averages -7.3466E+00  0.0000E+00 -5.8942E+00 -5.8942E+00  0.0000E+00  0.0000E+00  0.0000E+00  0.0000E+00  0.0000E+00
           1.1974E+04  0.0000E+00  0.0000E+00  0.0000E+00  9.0000E+01  9.0000E+01  9.0000E+01  0.0000E+00  5.8529E-01
 ------------------------------------------------------------------------------------------------------------------------
      400 -1.1932E+01  1.1161E+02 -1.5246E+01 -1.5246E+01  0.0000E+00  0.0000E+00  0.0000E+00  0.0000E+00  0.0000E+00
   2.400p -5.6662E+00  0.0000E+00 -1.0347E+01 -1.0347E+01  0.0000E+00  0.0000E+00  0.0000E+00  0.0000E+00  0.0000E+00
   0.157s  1.1974E+04  0.0000E+00  0.0000E+00  0.0000E+00  9.0000E+01  9.0000E+01  9.0000E+01  0.0000E+00  7.7933E-01

  rolling -1.1932E+01  1.1424E+02 -1.5409E+01 -1.5409E+01  0.0000E+00  0.0000E+00  0.0000E+00  0.0000E+00  0.0000E+00
 averages -6.9556E+00  0.0000E+00 -6.5330E+00 -6.5330E+00  0.0000E+00  0.0000E+00  0.0000E+00  0.0000E+00  0.0000E+00
           1.1974E+04  0.0000E+00  0.0000E+00  0.0000E+00  9.0000E+01  9.0000E+01  9.0000E+01  0.0000E+00  6.1909E-01
 ------------------------------------------------------------------------------------------------------------------------
      500 -1.1934E+01  1.2251E+02 -1.5424E+01 -1.5424E+01  0.0000E+00  0.0000E+00  0.0000E+00  0.0000E+00  0.0000E+00
   3.000p -6.5909E+00  0.0000E+00 -6.3084E+00 -6.3084E+00  0.0000E+00  0.0000E+00  0.0000E+00  0.0000E+00  0.0000E+00
   0.189s  1.1974E+04  0.0000E+00  0.0000E+00  0.0000E+00  9.0000E+01  9.0000E+01  9.0000E+01  0.0000E+00  6.3320E-01

  rolling -1.1933E+01  1.1690E+02 -1.5332E+01 -1.5332E+01  0.0000E+00  0.0000E+00  0.0000E+00  0.0000E+00  0.0000E+00
 averages -6.2249E+00  0.0000E+00 -8.0538E+00 -8.0538E+00  0.0000E+00  0.0000E+00  0.0000E+00  0.0000E+00  0.0000E+00
           1.1974E+04  0.0000E+00  0.0000E+00  0.0000E+00  9.0000E+01  9.0000E+01  9.0000E+01  0.0000E+00  6.9375E-01
 ------------------------------------------------------------------------------------------------------------------------
      600 -1.1934E+01  1.1069E+02 -1.4843E+01 -1.4843E+01  0.0000E+00  0.0000E+00  0.0000E+00  0.0000E+00  0.0000E+00
   3.600p -2.8283E+00  0.0000E+00 -1.7801E+01 -1.7801E+01  0.0000E+00  0.0000E+00  0.0000E+00  0.0000E+00  0.0000E+00
   0.221s  1.1974E+04  0.0000E+00  0.0000E+00  0.0000E+00  9.0000E+01  9.0000E+01  9.0000E+01  0.0000E+00  1.1048E+00

  rolling -1.1936E+01  1.2003E+02 -1.5246E+01 -1.5246E+01  0.0000E+00  0.0000E+00  0.0000E+00  0.0000E+00  0.0000E+00
 averages -5.3445E+00  0.0000E+00 -9.9223E+00 -9.9223E+00  0.0000E+00  0.0000E+00  0.0000E+00  0.0000E+00  0.0000E+00
           1.1974E+04  0.0000E+00  0.0000E+00  0.0000E+00  9.0000E+01  9.0000E+01  9.0000E+01  0.0000E+00  7.8507E-01
 ------------------------------------------------------------------------------------------------------------------------
      700 -1.1932E+01  1.2494E+02 -1.5122E+01 -1.5122E+01  0.0000E+00  0.0000E+00  0.0000E+00  0.0000E+00  0.0000E+00
   4.200p -4.2233E+00  0.0000E+00 -1.2104E+01 -1.2104E+01  0.0000E+00  0.0000E+00  0.0000E+00  0.0000E+00  0.0000E+00
   0.250s  1.1974E+04  0.0000E+00  0.0000E+00  0.0000E+00  9.0000E+01  9.0000E+01  9.0000E+01  0.0000E+00  8.9539E-01

  rolling -1.1934E+01  1.2573E+02 -1.5241E+01 -1.5241E+01  0.0000E+00  0.0000E+00  0.0000E+00  0.0000E+00  0.0000E+00
 averages -4.6247E+00  0.0000E+00 -1.1128E+01 -1.1128E+01  0.0000E+00  0.0000E+00  0.0000E+00  0.0000E+00  0.0000E+00
           1.1974E+04  0.0000E+00  0.0000E+00  0.0000E+00  9.0000E+01  9.0000E+01  9.0000E+01  0.0000E+00  8.5470E-01
 ------------------------------------------------------------------------------------------------------------------------
 ------------------------------------------------------------------------------------------------------------------------

     step     eng_tot    temp_tot     eng_cfg     eng_vdw     eng_cou     eng_bnd     eng_ang     eng_dih     eng_tet
 time          eng_pv    temp_rot     vir_cfg     vir_vdw     vir_cou     vir_bnd     vir_ang     vir_con     vir_tet
 cpu time      volume    temp_shl     eng_shl     vir_shl       alpha        beta       gamma     vir_pmf       press

 ------------------------------------------------------------------------------------------------------------------------
      800 -1.1927E+01  1.3195E+02 -1.5211E+01 -1.5211E+01  0.0000E+00  0.0000E+00  0.0000E+00  0.0000E+00  0.0000E+00
   4.800p -4.3223E+00  0.0000E+00 -1.0920E+01 -1.0920E+01  0.0000E+00  0.0000E+00  0.0000E+00  0.0000E+00  0.0000E+00
   0.278s  1.1974E+04  0.0000E+00  0.0000E+00  0.0000E+00  9.0000E+01  9.0000E+01  9.0000E+01  0.0000E+00  8.6358E-01

  rolling -1.1926E+01  1.2914E+02 -1.5180E+01 -1.5180E+01  0.0000E+00  0.0000E+00  0.0000E+00  0.0000E+00  0.0000E+00
 averages -4.1717E+00  0.0000E+00 -1.1740E+01 -1.1740E+01  0.0000E+00  0.0000E+00  0.0000E+00  0.0000E+00  0.0000E+00
           1.1974E+04  0.0000E+00  0.0000E+00  0.0000E+00  9.0000E+01  9.0000E+01  9.0000E+01  0.0000E+00  8.9156E-01
 ------------------------------------------------------------------------------------------------------------------------
      900 -1.1924E+01  1.2047E+02 -1.4761E+01 -1.4761E+01  0.0000E+00  0.0000E+00  0.0000E+00  0.0000E+00  0.0000E+00
   5.400p -2.2775E+00  0.0000E+00 -1.7597E+01 -1.7597E+01  0.0000E+00  0.0000E+00  0.0000E+00  0.0000E+00  0.0000E+00
   0.306s  1.1974E+04  0.0000E+00  0.0000E+00  0.0000E+00  9.0000E+01  9.0000E+01  9.0000E+01  0.0000E+00  1.1242E+00

  rolling -1.1926E+01  1.3107E+02 -1.5139E+01 -1.5139E+01  0.0000E+00  0.0000E+00  0.0000E+00  0.0000E+00  0.0000E+00
 averages -4.1655E+00  0.0000E+00 -1.1320E+01 -1.1320E+01  0.0000E+00  0.0000E+00  0.0000E+00  0.0000E+00  0.0000E+00
           1.1974E+04  0.0000E+00  0.0000E+00  0.0000E+00  9.0000E+01  9.0000E+01  9.0000E+01  0.0000E+00  8.7864E-01
 ------------------------------------------------------------------------------------------------------------------------
     1000 -1.1932E+01  1.3370E+02 -1.5197E+01 -1.5197E+01  0.0000E+00  0.0000E+00  0.0000E+00  0.0000E+00  0.0000E+00
   6.000p -3.6526E+00  0.0000E+00 -1.2597E+01 -1.2597E+01  0.0000E+00  0.0000E+00  0.0000E+00  0.0000E+00  0.0000E+00
   0.334s  1.1974E+04  0.0000E+00  0.0000E+00  0.0000E+00  9.0000E+01  9.0000E+01  9.0000E+01  0.0000E+00  9.4250E-01

  rolling -1.1931E+01  1.2941E+02 -1.5053E+01 -1.5053E+01  0.0000E+00  0.0000E+00  0.0000E+00  0.0000E+00  0.0000E+00
 averages -3.3340E+00  0.0000E+00 -1.3830E+01 -1.3830E+01  0.0000E+00  0.0000E+00  0.0000E+00  0.0000E+00  0.0000E+00
           1.1974E+04  0.0000E+00  0.0000E+00  0.0000E+00  9.0000E+01  9.0000E+01  9.0000E+01  0.0000E+00  9.8432E-01
 ------------------------------------------------------------------------------------------------------------------------
     1100 -1.1921E+01  1.3013E+02 -1.5118E+01 -1.5118E+01  0.0000E+00  0.0000E+00  0.0000E+00  0.0000E+00  0.0000E+00
   6.600p -3.7733E+00  0.0000E+00 -1.2588E+01 -1.2588E+01  0.0000E+00  0.0000E+00  0.0000E+00  0.0000E+00  0.0000E+00
   0.367s  1.1974E+04  0.0000E+00  0.0000E+00  0.0000E+00  9.0000E+01  9.0000E+01  9.0000E+01  0.0000E+00  9.3172E-01

  rolling -1.1926E+01  1.2803E+02 -1.5024E+01 -1.5024E+01  0.0000E+00  0.0000E+00  0.0000E+00  0.0000E+00  0.0000E+00
 averages -3.2796E+00  0.0000E+00 -1.4134E+01 -1.4134E+01  0.0000E+00  0.0000E+00  0.0000E+00  0.0000E+00  0.0000E+00
           1.1974E+04  0.0000E+00  0.0000E+00  0.0000E+00  9.0000E+01  9.0000E+01  9.0000E+01  0.0000E+00  9.9369E-01
 ------------------------------------------------------------------------------------------------------------------------
     1200 -1.1935E+01  1.2721E+02 -1.5148E+01 -1.5148E+01  0.0000E+00  0.0000E+00  0.0000E+00  0.0000E+00  0.0000E+00
   7.200p -4.3304E+00  0.0000E+00 -1.1488E+01 -1.1488E+01  0.0000E+00  0.0000E+00  0.0000E+00  0.0000E+00  0.0000E+00
   0.396s  1.1974E+04  0.0000E+00  0.0000E+00  0.0000E+00  9.0000E+01  9.0000E+01  9.0000E+01  0.0000E+00  8.7482E-01

  rolling -1.1927E+01  1.3022E+02 -1.5178E+01 -1.5178E+01  0.0000E+00  0.0000E+00  0.0000E+00  0.0000E+00  0.0000E+00
 averages -4.2436E+00  0.0000E+00 -1.1343E+01 -1.1343E+01  0.0000E+00  0.0000E+00  0.0000E+00  0.0000E+00  0.0000E+00
           1.1974E+04  0.0000E+00  0.0000E+00  0.0000E+00  9.0000E+01  9.0000E+01  9.0000E+01  0.0000E+00  8.7717E-01
 ------------------------------------------------------------------------------------------------------------------------
     1300 -1.1934E+01  1.2320E+02 -1.5178E+01 -1.5178E+01  0.0000E+00  0.0000E+00  0.0000E+00  0.0000E+00  0.0000E+00
   7.800p -4.9629E+00  0.0000E+00 -1.0341E+01 -1.0341E+01  0.0000E+00  0.0000E+00  0.0000E+00  0.0000E+00  0.0000E+00
   0.424s  1.1974E+04  0.0000E+00  0.0000E+00  0.0000E+00  9.0000E+01  9.0000E+01  9.0000E+01  0.0000E+00  8.1272E-01

  rolling -1.1933E+01  1.2684E+02 -1.5212E+01 -1.5212E+01  0.0000E+00  0.0000E+00  0.0000E+00  0.0000E+00  0.0000E+00
 averages -5.0067E+00  0.0000E+00 -9.7125E+00 -9.7125E+00  0.0000E+00  0.0000E+00  0.0000E+00  0.0000E+00  0.0000E+00
           1.1974E+04  0.0000E+00  0.0000E+00  0.0000E+00  9.0000E+01  9.0000E+01  9.0000E+01  0.0000E+00  7.9561E-01
 ------------------------------------------------------------------------------------------------------------------------
     1400 -1.1925E+01  1.2705E+02 -1.5482E+01 -1.5482E+01  0.0000E+00  0.0000E+00  0.0000E+00  0.0000E+00  0.0000E+00
   8.400p -6.6580E+00  0.0000E+00 -5.5342E+00 -5.5342E+00  0.0000E+00  0.0000E+00  0.0000E+00  0.0000E+00  0.0000E+00
   0.452s  1.1974E+04  0.0000E+00  0.0000E+00  0.0000E+00  9.0000E+01  9.0000E+01  9.0000E+01  0.0000E+00  6.1229E-01

  rolling -1.1929E+01  1.2248E+02 -1.5242E+01 -1.5242E+01  0.0000E+00  0.0000E+00  0.0000E+00  0.0000E+00  0.0000E+00
 averages -5.2826E+00  0.0000E+00 -9.6919E+00 -9.6919E+00  0.0000E+00  0.0000E+00  0.0000E+00  0.0000E+00  0.0000E+00
           1.1974E+04  0.0000E+00  0.0000E+00  0.0000E+00  9.0000E+01  9.0000E+01  9.0000E+01  0.0000E+00  7.8205E-01
 ------------------------------------------------------------------------------------------------------------------------
     1500 -1.1923E+01  1.1610E+02 -1.5323E+01 -1.5323E+01  0.0000E+00  0.0000E+00  0.0000E+00  0.0000E+00  0.0000E+00
   9.000p -5.8090E+00  0.0000E+00 -9.4089E+00 -9.4089E+00  0.0000E+00  0.0000E+00  0.0000E+00  0.0000E+00  0.0000E+00
   0.480s  1.1974E+04  0.0000E+00  0.0000E+00  0.0000E+00  9.0000E+01  9.0000E+01  9.0000E+01  0.0000E+00  7.5107E-01

  rolling -1.1925E+01  1.2111E+02 -1.5390E+01 -1.5390E+01  0.0000E+00  0.0000E+00  0.0000E+00  0.0000E+00  0.0000E+00
 averages -6.1850E+00  0.0000E+00 -7.6557E+00 -7.6557E+00  0.0000E+00  0.0000E+00  0.0000E+00  0.0000E+00  0.0000E+00
           1.1974E+04  0.0000E+00  0.0000E+00  0.0000E+00  9.0000E+01  9.0000E+01  9.0000E+01  0.0000E+00  6.8846E-01
 ------------------------------------------------------------------------------------------------------------------------
 ------------------------------------------------------------------------------------------------------------------------

     step     eng_tot    temp_tot     eng_cfg     eng_vdw     eng_cou     eng_bnd     eng_ang     eng_dih     eng_tet
 time          eng_pv    temp_rot     vir_cfg     vir_vdw     vir_cou     vir_bnd     vir_ang     vir_con     vir_tet
 cpu time      volume    temp_shl     eng_shl     vir_shl       alpha        beta       gamma     vir_pmf       press

 ------------------------------------------------------------------------------------------------------------------------
     1600 -1.1933E+01  1.1944E+02 -1.5628E+01 -1.5628E+01  0.0000E+00  0.0000E+00  0.0000E+00  0.0000E+00  0.0000E+00
   9.600p -8.0100E+00  0.0000E+00 -3.1709E+00 -3.1709E+00  0.0000E+00  0.0000E+00  0.0000E+00  0.0000E+00  0.0000E+00
   0.509s  1.1974E+04  0.0000E+00  0.0000E+00  0.0000E+00  9.0000E+01  9.0000E+01  9.0000E+01  0.0000E+00  4.8618E-01

  rolling -1.1934E+01  1.1797E+02 -1.5489E+01 -1.5489E+01  0.0000E+00  0.0000E+00  0.0000E+00  0.0000E+00  0.0000E+00
 averages -7.1295E+00  0.0000E+00 -5.6353E+00 -5.6353E+00  0.0000E+00  0.0000E+00  0.0000E+00  0.0000E+00  0.0000E+00
           1.1974E+04  0.0000E+00  0.0000E+00  0.0000E+00  9.0000E+01  9.0000E+01  9.0000E+01  0.0000E+00  5.9040E-01
 ------------------------------------------------------------------------------------------------------------------------
     1700 -1.1935E+01  1.1304E+02 -1.5587E+01 -1.5587E+01  0.0000E+00  0.0000E+00  0.0000E+00  0.0000E+00  0.0000E+00
  10.200p -7.9492E+00  0.0000E+00 -4.2837E+00 -4.2837E+00  0.0000E+00  0.0000E+00  0.0000E+00  0.0000E+00  0.0000E+00
   0.537s  1.1974E+04  0.0000E+00  0.0000E+00  0.0000E+00  9.0000E+01  9.0000E+01  9.0000E+01  0.0000E+00  5.1658E-01

  rolling -1.1935E+01  1.1471E+02 -1.5561E+01 -1.5561E+01  0.0000E+00  0.0000E+00  0.0000E+00  0.0000E+00  0.0000E+00
 averages -7.6910E+00  0.0000E+00 -4.7061E+00 -4.7061E+00  0.0000E+00  0.0000E+00  0.0000E+00  0.0000E+00  0.0000E+00
           1.1974E+04  0.0000E+00  0.0000E+00  0.0000E+00  9.0000E+01  9.0000E+01  9.0000E+01  0.0000E+00  5.4004E-01
 ------------------------------------------------------------------------------------------------------------------------
     1800 -1.1933E+01  1.0710E+02 -1.5521E+01 -1.5521E+01  0.0000E+00  0.0000E+00  0.0000E+00  0.0000E+00  0.0000E+00
  10.800p -7.9448E+00  0.0000E+00 -5.0795E+00 -5.0795E+00  0.0000E+00  0.0000E+00  0.0000E+00  0.0000E+00  0.0000E+00
   0.565s  1.1974E+04  0.0000E+00  0.0000E+00  0.0000E+00  9.0000E+01  9.0000E+01  9.0000E+01  0.0000E+00  5.3438E-01

  rolling -1.1933E+01  1.1254E+02 -1.5639E+01 -1.5639E+01  0.0000E+00  0.0000E+00  0.0000E+00  0.0000E+00  0.0000E+00
 averages -8.3397E+00  0.0000E+00 -3.3516E+00 -3.3516E+00  0.0000E+00  0.0000E+00  0.0000E+00  0.0000E+00  0.0000E+00
           1.1974E+04  0.0000E+00  0.0000E+00  0.0000E+00  9.0000E+01  9.0000E+01  9.0000E+01  0.0000E+00  4.7412E-01
 ------------------------------------------------------------------------------------------------------------------------
     1900 -1.1936E+01  1.0703E+02 -1.5594E+01 -1.5594E+01  0.0000E+00  0.0000E+00  0.0000E+00  0.0000E+00  0.0000E+00
  11.400p -8.3523E+00  0.0000E+00 -4.0872E+00 -4.0872E+00  0.0000E+00  0.0000E+00  0.0000E+00  0.0000E+00  0.0000E+00
   0.593s  1.1974E+04  0.0000E+00  0.0000E+00  0.0000E+00  9.0000E+01  9.0000E+01  9.0000E+01  0.0000E+00  4.9049E-01

  rolling -1.1937E+01  1.0840E+02 -1.5609E+01 -1.5609E+01  0.0000E+00  0.0000E+00  0.0000E+00  0.0000E+00  0.0000E+00
 averages -8.4777E+00  0.0000E+00 -3.5288E+00 -3.5288E+00  0.0000E+00  0.0000E+00  0.0000E+00  0.0000E+00  0.0000E+00
           1.1974E+04  0.0000E+00  0.0000E+00  0.0000E+00  9.0000E+01  9.0000E+01  9.0000E+01  0.0000E+00  4.6989E-01
 ------------------------------------------------------------------------------------------------------------------------
     2000 -1.1932E+01  1.0973E+02 -1.5693E+01 -1.5693E+01  0.0000E+00  0.0000E+00  0.0000E+00  0.0000E+00  0.0000E+00
  12.000p -9.1423E+00  0.0000E+00 -1.5684E+00 -1.5684E+00  0.0000E+00  0.0000E+00  0.0000E+00  0.0000E+00  0.0000E+00
   0.622s  1.1974E+04  0.0000E+00  0.0000E+00  0.0000E+00  9.0000E+01  9.0000E+01  9.0000E+01  0.0000E+00  3.8747E-01

  rolling -1.1935E+01  1.0930E+02 -1.5679E+01 -1.5679E+01  0.0000E+00  0.0000E+00  0.0000E+00  0.0000E+00  0.0000E+00
 averages -9.0609E+00  0.0000E+00 -1.8419E+00 -1.8419E+00  0.0000E+00  0.0000E+00  0.0000E+00  0.0000E+00  0.0000E+00
           1.1974E+04  0.0000E+00  0.0000E+00  0.0000E+00  9.0000E+01  9.0000E+01  9.0000E+01  0.0000E+00  3.9825E-01
 ------------------------------------------------------------------------------------------------------------------------
     2100 -1.1926E+01  1.0508E+02 -1.5487E+01 -1.5487E+01  0.0000E+00  0.0000E+00  0.0000E+00  0.0000E+00  0.0000E+00
  12.600p -8.0652E+00  0.0000E+00 -4.9473E+00 -4.9473E+00  0.0000E+00  0.0000E+00  0.0000E+00  0.0000E+00  0.0000E+00
   0.654s  1.1974E+04  0.0000E+00  0.0000E+00  0.0000E+00  9.0000E+01  9.0000E+01  9.0000E+01  0.0000E+00  5.2272E-01

  rolling -1.1927E+01  1.0808E+02 -1.5615E+01 -1.5615E+01  0.0000E+00  0.0000E+00  0.0000E+00  0.0000E+00  0.0000E+00
 averages -8.5131E+00  0.0000E+00 -3.4932E+00 -3.4932E+00  0.0000E+00  0.0000E+00  0.0000E+00  0.0000E+00  0.0000E+00
           1.1974E+04  0.0000E+00  0.0000E+00  0.0000E+00  9.0000E+01  9.0000E+01  9.0000E+01  0.0000E+00  4.6740E-01
 ------------------------------------------------------------------------------------------------------------------------
     2200 -1.1928E+01  1.1094E+02 -1.5572E+01 -1.5572E+01  0.0000E+00  0.0000E+00  0.0000E+00  0.0000E+00  0.0000E+00
  13.200p -7.5081E+00  0.0000E+00 -5.9075E+00 -5.9075E+00  0.0000E+00  0.0000E+00  0.0000E+00  0.0000E+00  0.0000E+00
   0.683s  1.1974E+04  0.0000E+00  0.0000E+00  0.0000E+00  9.0000E+01  9.0000E+01  9.0000E+01  0.0000E+00  5.8197E-01

  rolling -1.1929E+01  1.0819E+02 -1.5542E+01 -1.5542E+01  0.0000E+00  0.0000E+00  0.0000E+00  0.0000E+00  0.0000E+00
 averages -8.0978E+00  0.0000E+00 -4.5029E+00 -4.5029E+00  0.0000E+00  0.0000E+00  0.0000E+00  0.0000E+00  0.0000E+00
           1.1974E+04  0.0000E+00  0.0000E+00  0.0000E+00  9.0000E+01  9.0000E+01  9.0000E+01  0.0000E+00  5.1216E-01
 ------------------------------------------------------------------------------------------------------------------------
     2300 -1.1928E+01  1.1500E+02 -1.5537E+01 -1.5537E+01  0.0000E+00  0.0000E+00  0.0000E+00  0.0000E+00  0.0000E+00
  13.800p -7.4212E+00  0.0000E+00 -5.3950E+00 -5.3950E+00  0.0000E+00  0.0000E+00  0.0000E+00  0.0000E+00  0.0000E+00
   0.711s  1.1974E+04  0.0000E+00  0.0000E+00  0.0000E+00  9.0000E+01  9.0000E+01  9.0000E+01  0.0000E+00  5.7121E-01

  rolling -1.1928E+01  1.1217E+02 -1.5532E+01 -1.5532E+01  0.0000E+00  0.0000E+00  0.0000E+00  0.0000E+00  0.0000E+00
 averages -7.3975E+00  0.0000E+00 -5.9166E+00 -5.9166E+00  0.0000E+00  0.0000E+00  0.0000E+00  0.0000E+00  0.0000E+00
           1.1974E+04  0.0000E+00  0.0000E+00  0.0000E+00  9.0000E+01  9.0000E+01  9.0000E+01  0.0000E+00  5.8596E-01
 ------------------------------------------------------------------------------------------------------------------------
 ------------------------------------------------------------------------------------------------------------------------

     step     eng_tot    temp_tot     eng_cfg     eng_vdw     eng_cou     eng_bnd     eng_ang     eng_dih     eng_tet
 time          eng_pv    temp_rot     vir_cfg     vir_vdw     vir_cou     vir_bnd     vir_ang     vir_con     vir_tet
 cpu time      volume    temp_shl     eng_shl     vir_shl       alpha        beta       gamma     vir_pmf       press

 ------------------------------------------------------------------------------------------------------------------------
     2400 -1.1928E+01  1.1053E+02 -1.5186E+01 -1.5186E+01  0.0000E+00  0.0000E+00  0.0000E+00  0.0000E+00  0.0000E+00
  14.400p -5.4383E+00  0.0000E+00 -1.1027E+01 -1.1027E+01  0.0000E+00  0.0000E+00  0.0000E+00  0.0000E+00  0.0000E+00
   0.739s  1.1974E+04  0.0000E+00  0.0000E+00  0.0000E+00  9.0000E+01  9.0000E+01  9.0000E+01  0.0000E+00  8.0617E-01

  rolling -1.1931E+01  1.1358E+02 -1.5392E+01 -1.5392E+01  0.0000E+00  0.0000E+00  0.0000E+00  0.0000E+00  0.0000E+00
 averages -6.7039E+00  0.0000E+00 -7.3466E+00 -7.3466E+00  0.0000E+00  0.0000E+00  0.0000E+00  0.0000E+00  0.0000E+00
           1.1974E+04  0.0000E+00  0.0000E+00  0.0000E+00  9.0000E+01  9.0000E+01  9.0000E+01  0.0000E+00  6.5298E-01
 ------------------------------------------------------------------------------------------------------------------------
     2500 -1.1932E+01  1.2553E+02 -1.5443E+01 -1.5443E+01  0.0000E+00  0.0000E+00  0.0000E+00  0.0000E+00  0.0000E+00
  15.000p -6.1364E+00  0.0000E+00 -7.2312E+00 -7.2312E+00  0.0000E+00  0.0000E+00  0.0000E+00  0.0000E+00  0.0000E+00
   0.767s  1.1974E+04  0.0000E+00  0.0000E+00  0.0000E+00  9.0000E+01  9.0000E+01  9.0000E+01  0.0000E+00  6.8257E-01

  rolling -1.1932E+01  1.1885E+02 -1.5345E+01 -1.5345E+01  0.0000E+00  0.0000E+00  0.0000E+00  0.0000E+00  0.0000E+00
 averages -5.9176E+00  0.0000E+00 -8.6941E+00 -8.6941E+00  0.0000E+00  0.0000E+00  0.0000E+00  0.0000E+00  0.0000E+00
           1.1974E+04  0.0000E+00  0.0000E+00  0.0000E+00  9.0000E+01  9.0000E+01  9.0000E+01  0.0000E+00  7.2761E-01
 ------------------------------------------------------------------------------------------------------------------------
     2600 -1.1931E+01  1.1803E+02 -1.4956E+01 -1.4956E+01  0.0000E+00  0.0000E+00  0.0000E+00  0.0000E+00  0.0000E+00
  15.600p -3.5630E+00  0.0000E+00 -1.4727E+01 -1.4727E+01  0.0000E+00  0.0000E+00  0.0000E+00  0.0000E+00  0.0000E+00
   0.796s  1.1974E+04  0.0000E+00  0.0000E+00  0.0000E+00  9.0000E+01  9.0000E+01  9.0000E+01  0.0000E+00  9.9077E-01

  rolling -1.1930E+01  1.2247E+02 -1.5218E+01 -1.5218E+01  0.0000E+00  0.0000E+00  0.0000E+00  0.0000E+00  0.0000E+00
 averages -4.9744E+00  0.0000E+00 -1.0548E+01 -1.0548E+01  0.0000E+00  0.0000E+00  0.0000E+00  0.0000E+00  0.0000E+00
           1.1974E+04  0.0000E+00  0.0000E+00  0.0000E+00  9.0000E+01  9.0000E+01  9.0000E+01  0.0000E+00  8.1970E-01
 ------------------------------------------------------------------------------------------------------------------------
     2700 -1.1932E+01  1.2930E+02 -1.5111E+01 -1.5111E+01  0.0000E+00  0.0000E+00  0.0000E+00  0.0000E+00  0.0000E+00
  16.200p -3.8404E+00  0.0000E+00 -1.2502E+01 -1.2502E+01  0.0000E+00  0.0000E+00  0.0000E+00  0.0000E+00  0.0000E+00
   0.824s  1.1974E+04  0.0000E+00  0.0000E+00  0.0000E+00  9.0000E+01  9.0000E+01  9.0000E+01  0.0000E+00  9.2553E-01

  rolling -1.1930E+01  1.2952E+02 -1.5219E+01 -1.5219E+01  0.0000E+00  0.0000E+00  0.0000E+00  0.0000E+00  0.0000E+00
 averages -4.7897E+00  0.0000E+00 -9.9428E+00 -9.9428E+00  0.0000E+00  0.0000E+00  0.0000E+00  0.0000E+00  0.0000E+00
           1.1974E+04  0.0000E+00  0.0000E+00  0.0000E+00  9.0000E+01  9.0000E+01  9.0000E+01  0.0000E+00  8.1353E-01
 ------------------------------------------------------------------------------------------------------------------------
     2800 -1.1926E+01  1.2820E+02 -1.4920E+01 -1.4920E+01  0.0000E+00  0.0000E+00  0.0000E+00  0.0000E+00  0.0000E+00
  16.800p -2.8107E+00  0.0000E+00 -1.5200E+01 -1.5200E+01  0.0000E+00  0.0000E+00  0.0000E+00  0.0000E+00  0.0000E+00
   0.852s  1.1974E+04  0.0000E+00  0.0000E+00  0.0000E+00  9.0000E+01  9.0000E+01  9.0000E+01  0.0000E+00  1.0411E+00

  rolling -1.1927E+01  1.3227E+02 -1.5122E+01 -1.5122E+01  0.0000E+00  0.0000E+00  0.0000E+00  0.0000E+00  0.0000E+00
 averages -3.9722E+00  0.0000E+00 -1.1651E+01 -1.1651E+01  0.0000E+00  0.0000E+00  0.0000E+00  0.0000E+00  0.0000E+00
           1.1974E+04  0.0000E+00  0.0000E+00  0.0000E+00  9.0000E+01  9.0000E+01  9.0000E+01  0.0000E+00  8.9670E-01
 ------------------------------------------------------------------------------------------------------------------------
     2900 -1.1923E+01  1.2804E+02 -1.4850E+01 -1.4850E+01  0.0000E+00  0.0000E+00  0.0000E+00  0.0000E+00  0.0000E+00
  17.400p -2.0719E+00  0.0000E+00 -1.7232E+01 -1.7232E+01  0.0000E+00  0.0000E+00  0.0000E+00  0.0000E+00  0.0000E+00
   0.881s  1.1974E+04  0.0000E+00  0.0000E+00  0.0000E+00  9.0000E+01  9.0000E+01  9.0000E+01  0.0000E+00  1.1301E+00

  rolling -1.1930E+01  1.3239E+02 -1.5023E+01 -1.5023E+01  0.0000E+00  0.0000E+00  0.0000E+00  0.0000E+00  0.0000E+00
 averages -2.9843E+00  0.0000E+00 -1.4299E+01 -1.4299E+01  0.0000E+00  0.0000E+00  0.0000E+00  0.0000E+00  0.0000E+00
           1.1974E+04  0.0000E+00  0.0000E+00  0.0000E+00  9.0000E+01  9.0000E+01  9.0000E+01  0.0000E+00  1.0136E+00
 ------------------------------------------------------------------------------------------------------------------------
     3000 -1.1932E+01  1.4012E+02 -1.5276E+01 -1.5276E+01  0.0000E+00  0.0000E+00  0.0000E+00  0.0000E+00  0.0000E+00
  18.000p -4.1394E+00  0.0000E+00 -1.0318E+01 -1.0318E+01  0.0000E+00  0.0000E+00  0.0000E+00  0.0000E+00  0.0000E+00
   0.909s  1.1974E+04  0.0000E+00  0.0000E+00  0.0000E+00  9.0000E+01  9.0000E+01  9.0000E+01  0.0000E+00  8.6080E-01

  rolling -1.1929E+01  1.3327E+02 -1.5030E+01 -1.5030E+01  0.0000E+00  0.0000E+00  0.0000E+00  0.0000E+00  0.0000E+00
 averages -3.0003E+00  0.0000E+00 -1.4126E+01 -1.4126E+01  0.0000E+00  0.0000E+00  0.0000E+00  0.0000E+00  0.0000E+00
           1.1974E+04  0.0000E+00  0.0000E+00  0.0000E+00  9.0000E+01  9.0000E+01  9.0000E+01  0.0000E+00  1.0086E+00
 ------------------------------------------------------------------------------------------------------------------------
     3100 -1.1930E+01  1.3137E+02 -1.5094E+01 -1.5094E+01  0.0000E+00  0.0000E+00  0.0000E+00  0.0000E+00  0.0000E+00
  18.600p -3.8522E+00  0.0000E+00 -1.2076E+01 -1.2076E+01  0.0000E+00  0.0000E+00  0.0000E+00  0.0000E+00  0.0000E+00
   0.942s  1.1974E+04  0.0000E+00  0.0000E+00  0.0000E+00  9.0000E+01  9.0000E+01  9.0000E+01  0.0000E+00  9.1279E-01

  rolling -1.1931E+01  1.3185E+02 -1.5051E+01 -1.5051E+01  0.0000E+00  0.0000E+00  0.0000E+00  0.0000E+00  0.0000E+00
 averages -3.3307E+00  0.0000E+00 -1.3433E+01 -1.3433E+01  0.0000E+00  0.0000E+00  0.0000E+00  0.0000E+00  0.0000E+00
           1.1974E+04  0.0000E+00  0.0000E+00  0.0000E+00  9.0000E+01  9.0000E+01  9.0000E+01  0.0000E+00  9.7391E-01
 ------------------------------------------------------------------------------------------------------------------------
 ------------------------------------------------------------------------------------------------------------------------

     step     eng_tot    temp_tot     eng_cfg     eng_vdw     eng_cou     eng_bnd     eng_ang     eng_dih     eng_tet
 time          eng_pv    temp_rot     vir_cfg     vir_vdw     vir_cou     vir_bnd     vir_ang     vir_con     vir_tet
 cpu time      volume    temp_shl     eng_shl     vir_shl       alpha        beta       gamma     vir_pmf       press

 ------------------------------------------------------------------------------------------------------------------------
     3200 -1.1930E+01  1.2724E+02 -1.5133E+01 -1.5133E+01  0.0000E+00  0.0000E+00  0.0000E+00  0.0000E+00  0.0000E+00
  19.200p -4.0868E+00  0.0000E+00 -1.2169E+01 -1.2169E+01  0.0000E+00  0.0000E+00  0.0000E+00  0.0000E+00  0.0000E+00
   0.970s  1.1974E+04  0.0000E+00  0.0000E+00  0.0000E+00  9.0000E+01  9.0000E+01  9.0000E+01  0.0000E+00  9.0489E-01

  rolling -1.1930E+01  1.2942E+02 -1.5113E+01 -1.5113E+01  0.0000E+00  0.0000E+00  0.0000E+00  0.0000E+00  0.0000E+00
 averages -4.0206E+00  0.0000E+00 -1.1948E+01 -1.1948E+01  0.0000E+00  0.0000E+00  0.0000E+00  0.0000E+00  0.0000E+00
           1.1974E+04  0.0000E+00  0.0000E+00  0.0000E+00  9.0000E+01  9.0000E+01  9.0000E+01  0.0000E+00  9.0152E-01
 ------------------------------------------------------------------------------------------------------------------------
     3300 -1.1937E+01  1.2089E+02 -1.5137E+01 -1.5137E+01  0.0000E+00  0.0000E+00  0.0000E+00  0.0000E+00  0.0000E+00
  19.800p -4.9622E+00  0.0000E+00 -1.0603E+01 -1.0603E+01  0.0000E+00  0.0000E+00  0.0000E+00  0.0000E+00  0.0000E+00
   0.999s  1.1974E+04  0.0000E+00  0.0000E+00  0.0000E+00  9.0000E+01  9.0000E+01  9.0000E+01  0.0000E+00  8.1753E-01

  rolling -1.1932E+01  1.2366E+02 -1.5120E+01 -1.5120E+01  0.0000E+00  0.0000E+00  0.0000E+00  0.0000E+00  0.0000E+00
 averages -4.3364E+00  0.0000E+00 -1.1970E+01 -1.1970E+01  0.0000E+00  0.0000E+00  0.0000E+00  0.0000E+00  0.0000E+00
           1.1974E+04  0.0000E+00  0.0000E+00  0.0000E+00  9.0000E+01  9.0000E+01  9.0000E+01  0.0000E+00  8.8575E-01
 ------------------------------------------------------------------------------------------------------------------------
     3400 -1.1921E+01  1.2348E+02 -1.5417E+01 -1.5417E+01  0.0000E+00  0.0000E+00  0.0000E+00  0.0000E+00  0.0000E+00
  20.400p -6.6843E+00  0.0000E+00 -5.8464E+00 -5.8464E+00  0.0000E+00  0.0000E+00  0.0000E+00  0.0000E+00  0.0000E+00
   1.027s  1.1974E+04  0.0000E+00  0.0000E+00  0.0000E+00  9.0000E+01  9.0000E+01  9.0000E+01  0.0000E+00  6.1569E-01

  rolling -1.1930E+01  1.1984E+02 -1.5202E+01 -1.5202E+01  0.0000E+00  0.0000E+00  0.0000E+00  0.0000E+00  0.0000E+00
 averages -5.5300E+00  0.0000E+00 -9.2650E+00 -9.2650E+00  0.0000E+00  0.0000E+00  0.0000E+00  0.0000E+00  0.0000E+00
           1.1974E+04  0.0000E+00  0.0000E+00  0.0000E+00  9.0000E+01  9.0000E+01  9.0000E+01  0.0000E+00  7.5559E-01
 ------------------------------------------------------------------------------------------------------------------------
     3500 -1.1932E+01  1.1429E+02 -1.5330E+01 -1.5330E+01  0.0000E+00  0.0000E+00  0.0000E+00  0.0000E+00  0.0000E+00
  21.000p -6.5697E+00  0.0000E+00 -7.4433E+00 -7.4433E+00  0.0000E+00  0.0000E+00  0.0000E+00  0.0000E+00  0.0000E+00
   1.055s  1.1974E+04  0.0000E+00  0.0000E+00  0.0000E+00  9.0000E+01  9.0000E+01  9.0000E+01  0.0000E+00  6.5931E-01

  rolling -1.1927E+01  1.1713E+02 -1.5319E+01 -1.5319E+01  0.0000E+00  0.0000E+00  0.0000E+00  0.0000E+00  0.0000E+00
 averages -6.1104E+00  0.0000E+00 -8.3223E+00 -8.3223E+00  0.0000E+00  0.0000E+00  0.0000E+00  0.0000E+00  0.0000E+00
           1.1974E+04  0.0000E+00  0.0000E+00  0.0000E+00  9.0000E+01  9.0000E+01  9.0000E+01  0.0000E+00  7.0624E-01
 ------------------------------------------------------------------------------------------------------------------------
     3600 -1.1934E+01  1.1021E+02 -1.5377E+01 -1.5377E+01  0.0000E+00  0.0000E+00  0.0000E+00  0.0000E+00  0.0000E+00
  21.600p -6.9260E+00  0.0000E+00 -7.1886E+00 -7.1886E+00  0.0000E+00  0.0000E+00  0.0000E+00  0.0000E+00  0.0000E+00
   1.084s  1.1974E+04  0.0000E+00  0.0000E+00  0.0000E+00  9.0000E+01  9.0000E+01  9.0000E+01  0.0000E+00  6.3626E-01

  rolling -1.1935E+01  1.1589E+02 -1.5478E+01 -1.5478E+01  0.0000E+00  0.0000E+00  0.0000E+00  0.0000E+00  0.0000E+00
 averages -7.2939E+00  0.0000E+00 -5.4526E+00 -5.4526E+00  0.0000E+00  0.0000E+00  0.0000E+00  0.0000E+00  0.0000E+00
           1.1974E+04  0.0000E+00  0.0000E+00  0.0000E+00  9.0000E+01  9.0000E+01  9.0000E+01  0.0000E+00  5.7632E-01
 ------------------------------------------------------------------------------------------------------------------------
     3700 -1.1929E+01  1.1012E+02 -1.5515E+01 -1.5515E+01  0.0000E+00  0.0000E+00  0.0000E+00  0.0000E+00  0.0000E+00
  22.200p -7.3373E+00  0.0000E+00 -6.3831E+00 -6.3831E+00  0.0000E+00  0.0000E+00  0.0000E+00  0.0000E+00  0.0000E+00
   1.112s  1.1974E+04  0.0000E+00  0.0000E+00  0.0000E+00  9.0000E+01  9.0000E+01  9.0000E+01  0.0000E+00  6.0054E-01

  rolling -1.1932E+01  1.1259E+02 -1.5531E+01 -1.5531E+01  0.0000E+00  0.0000E+00  0.0000E+00  0.0000E+00  0.0000E+00
 averages -7.6695E+00  0.0000E+00 -5.0292E+00 -5.0292E+00  0.0000E+00  0.0000E+00  0.0000E+00  0.0000E+00  0.0000E+00
           1.1974E+04  0.0000E+00  0.0000E+00  0.0000E+00  9.0000E+01  9.0000E+01  9.0000E+01  0.0000E+00  5.4810E-01
 ------------------------------------------------------------------------------------------------------------------------
     3800 -1.1931E+01  1.1043E+02 -1.5621E+01 -1.5621E+01  0.0000E+00  0.0000E+00  0.0000E+00  0.0000E+00  0.0000E+00
  22.800p -8.4378E+00  0.0000E+00 -3.3506E+00 -3.3506E+00  0.0000E+00  0.0000E+00  0.0000E+00  0.0000E+00  0.0000E+00
   1.142s  1.1974E+04  0.0000E+00  0.0000E+00  0.0000E+00  9.0000E+01  9.0000E+01  9.0000E+01  0.0000E+00  4.6795E-01

  rolling -1.1930E+01  1.1133E+02 -1.5607E+01 -1.5607E+01  0.0000E+00  0.0000E+00  0.0000E+00  0.0000E+00  0.0000E+00
 averages -8.0807E+00  0.0000E+00 -4.2316E+00 -4.2316E+00  0.0000E+00  0.0000E+00  0.0000E+00  0.0000E+00  0.0000E+00
           1.1974E+04  0.0000E+00  0.0000E+00  0.0000E+00  9.0000E+01  9.0000E+01  9.0000E+01  0.0000E+00  5.0934E-01
 ------------------------------------------------------------------------------------------------------------------------
     3900 -1.1931E+01  1.0551E+02 -1.5510E+01 -1.5510E+01  0.0000E+00  0.0000E+00  0.0000E+00  0.0000E+00  0.0000E+00
  23.400p -7.8819E+00  0.0000E+00 -5.4953E+00 -5.4953E+00  0.0000E+00  0.0000E+00  0.0000E+00  0.0000E+00  0.0000E+00
   1.170s  1.1974E+04  0.0000E+00  0.0000E+00  0.0000E+00  9.0000E+01  9.0000E+01  9.0000E+01  0.0000E+00  5.4806E-01

  rolling -1.1932E+01  1.0978E+02 -1.5631E+01 -1.5631E+01  0.0000E+00  0.0000E+00  0.0000E+00  0.0000E+00  0.0000E+00
 averages -8.2964E+00  0.0000E+00 -3.9101E+00 -3.9101E+00  0.0000E+00  0.0000E+00  0.0000E+00  0.0000E+00  0.0000E+00
           1.1974E+04  0.0000E+00  0.0000E+00  0.0000E+00  9.0000E+01  9.0000E+01  9.0000E+01  0.0000E+00  4.9069E-01
 ------------------------------------------------------------------------------------------------------------------------
 ------------------------------------------------------------------------------------------------------------------------

     step     eng_tot    temp_tot     eng_cfg     eng_vdw     eng_cou     eng_bnd     eng_ang     eng_dih     eng_tet
 time          eng_pv    temp_rot     vir_cfg     vir_vdw     vir_cou     vir_bnd     vir_ang     vir_con     vir_tet
 cpu time      volume    temp_shl     eng_shl     vir_shl       alpha        beta       gamma     vir_pmf       press

 ------------------------------------------------------------------------------------------------------------------------
     4000 -1.1932E+01  1.0957E+02 -1.5635E+01 -1.5635E+01  0.0000E+00  0.0000E+00  0.0000E+00  0.0000E+00  0.0000E+00
  24.000p -8.6151E+00  0.0000E+00 -3.0008E+00 -3.0008E+00  0.0000E+00  0.0000E+00  0.0000E+00  0.0000E+00  0.0000E+00
   1.198s  1.1974E+04  0.0000E+00  0.0000E+00  0.0000E+00  9.0000E+01  9.0000E+01  9.0000E+01  0.0000E+00  4.5006E-01

  rolling -1.1928E+01  1.0933E+02 -1.5632E+01 -1.5632E+01  0.0000E+00  0.0000E+00  0.0000E+00  0.0000E+00  0.0000E+00
 averages -8.4851E+00  0.0000E+00 -3.4235E+00 -3.4235E+00  0.0000E+00  0.0000E+00  0.0000E+00  0.0000E+00  0.0000E+00
           1.1974E+04  0.0000E+00  0.0000E+00  0.0000E+00  9.0000E+01  9.0000E+01  9.0000E+01  0.0000E+00  4.6795E-01
 ------------------------------------------------------------------------------------------------------------------------
     4100 -1.1941E+01  1.0984E+02 -1.5586E+01 -1.5586E+01  0.0000E+00  0.0000E+00  0.0000E+00  0.0000E+00  0.0000E+00
  24.600p -8.3703E+00  0.0000E+00 -3.5444E+00 -3.5444E+00  0.0000E+00  0.0000E+00  0.0000E+00  0.0000E+00  0.0000E+00
   1.231s  1.1974E+04  0.0000E+00  0.0000E+00  0.0000E+00  9.0000E+01  9.0000E+01  9.0000E+01  0.0000E+00  4.7477E-01

  rolling -1.1938E+01  1.1065E+02 -1.5647E+01 -1.5647E+01  0.0000E+00  0.0000E+00  0.0000E+00  0.0000E+00  0.0000E+00
 averages -8.7446E+00  0.0000E+00 -2.4715E+00 -2.4715E+00  0.0000E+00  0.0000E+00  0.0000E+00  0.0000E+00  0.0000E+00
           1.1974E+04  0.0000E+00  0.0000E+00  0.0000E+00  9.0000E+01  9.0000E+01  9.0000E+01  0.0000E+00  4.2990E-01
 ------------------------------------------------------------------------------------------------------------------------
     4200 -1.1931E+01  1.1797E+02 -1.5730E+01 -1.5730E+01  0.0000E+00  0.0000E+00  0.0000E+00  0.0000E+00  0.0000E+00
  25.200p -9.0983E+00  0.0000E+00 -4.5207E-01 -4.5207E-01  0.0000E+00  0.0000E+00  0.0000E+00  0.0000E+00  0.0000E+00
   1.259s  1.1974E+04  0.0000E+00  0.0000E+00  0.0000E+00  9.0000E+01  9.0000E+01  9.0000E+01  0.0000E+00  3.6223E-01

  rolling -1.1937E+01  1.1073E+02 -1.5558E+01 -1.5558E+01  0.0000E+00  0.0000E+00  0.0000E+00  0.0000E+00  0.0000E+00
 averages -8.2494E+00  0.0000E+00 -3.6773E+00 -3.6773E+00  0.0000E+00  0.0000E+00  0.0000E+00  0.0000E+00  0.0000E+00
           1.1974E+04  0.0000E+00  0.0000E+00  0.0000E+00  9.0000E+01  9.0000E+01  9.0000E+01  0.0000E+00  4.8320E-01
 ------------------------------------------------------------------------------------------------------------------------
     4300 -1.1936E+01  1.1477E+02 -1.5474E+01 -1.5474E+01  0.0000E+00  0.0000E+00  0.0000E+00  0.0000E+00  0.0000E+00
  25.800p -6.8729E+00  0.0000E+00 -6.8881E+00 -6.8881E+00  0.0000E+00  0.0000E+00  0.0000E+00  0.0000E+00  0.0000E+00
   1.288s  1.1974E+04  0.0000E+00  0.0000E+00  0.0000E+00  9.0000E+01  9.0000E+01  9.0000E+01  0.0000E+00  6.3626E-01

  rolling -1.1933E+01  1.1397E+02 -1.5524E+01 -1.5524E+01  0.0000E+00  0.0000E+00  0.0000E+00  0.0000E+00  0.0000E+00
 averages -7.5575E+00  0.0000E+00 -5.1150E+00 -5.1150E+00  0.0000E+00  0.0000E+00  0.0000E+00  0.0000E+00  0.0000E+00
           1.1974E+04  0.0000E+00  0.0000E+00  0.0000E+00  9.0000E+01  9.0000E+01  9.0000E+01  0.0000E+00  5.5589E-01
 ------------------------------------------------------------------------------------------------------------------------
     4400 -1.1933E+01  1.1666E+02 -1.5348E+01 -1.5348E+01  0.0000E+00  0.0000E+00  0.0000E+00  0.0000E+00  0.0000E+00
  26.400p -6.1989E+00  0.0000E+00 -8.2205E+00 -8.2205E+00  0.0000E+00  0.0000E+00  0.0000E+00  0.0000E+00  0.0000E+00
   1.316s  1.1974E+04  0.0000E+00  0.0000E+00  0.0000E+00  9.0000E+01  9.0000E+01  9.0000E+01  0.0000E+00  7.0038E-01

  rolling -1.1934E+01  1.1737E+02 -1.5464E+01 -1.5464E+01  0.0000E+00  0.0000E+00  0.0000E+00  0.0000E+00  0.0000E+00
 averages -6.8477E+00  0.0000E+00 -6.5070E+00 -6.5070E+00  0.0000E+00  0.0000E+00  0.0000E+00  0.0000E+00  0.0000E+00
           1.1974E+04  0.0000E+00  0.0000E+00  0.0000E+00  9.0000E+01  9.0000E+01  9.0000E+01  0.0000E+00  6.2702E-01
 ------------------------------------------------------------------------------------------------------------------------
     4500 -1.1929E+01  1.1985E+02 -1.5246E+01 -1.5246E+01  0.0000E+00  0.0000E+00  0.0000E+00  0.0000E+00  0.0000E+00
  27.000p -5.3225E+00  0.0000E+00 -1.0019E+01 -1.0019E+01  0.0000E+00  0.0000E+00  0.0000E+00  0.0000E+00  0.0000E+00
   1.344s  1.1974E+04  0.0000E+00  0.0000E+00  0.0000E+00  9.0000E+01  9.0000E+01  9.0000E+01  0.0000E+00  7.8881E-01

  rolling -1.1935E+01  1.1810E+02 -1.5297E+01 -1.5297E+01  0.0000E+00  0.0000E+00  0.0000E+00  0.0000E+00  0.0000E+00
 averages -5.6970E+00  0.0000E+00 -9.3340E+00 -9.3340E+00  0.0000E+00  0.0000E+00  0.0000E+00  0.0000E+00  0.0000E+00
           1.1974E+04  0.0000E+00  0.0000E+00  0.0000E+00  9.0000E+01  9.0000E+01  9.0000E+01  0.0000E+00  7.5360E-01
 ------------------------------------------------------------------------------------------------------------------------
     4600 -1.1936E+01  1.2595E+02 -1.5251E+01 -1.5251E+01  0.0000E+00  0.0000E+00  0.0000E+00  0.0000E+00  0.0000E+00
  27.600p -4.9790E+00  0.0000E+00 -1.0060E+01 -1.0060E+01  0.0000E+00  0.0000E+00  0.0000E+00  0.0000E+00  0.0000E+00
   1.373s  1.1974E+04  0.0000E+00  0.0000E+00  0.0000E+00  9.0000E+01  9.0000E+01  9.0000E+01  0.0000E+00  8.0830E-01

  rolling -1.1934E+01  1.2301E+02 -1.5251E+01 -1.5251E+01  0.0000E+00  0.0000E+00  0.0000E+00  0.0000E+00  0.0000E+00
 averages -4.9653E+00  0.0000E+00 -1.0585E+01 -1.0585E+01  0.0000E+00  0.0000E+00  0.0000E+00  0.0000E+00  0.0000E+00
           1.1974E+04  0.0000E+00  0.0000E+00  0.0000E+00  9.0000E+01  9.0000E+01  9.0000E+01  0.0000E+00  8.2291E-01
 ------------------------------------------------------------------------------------------------------------------------
     4700 -1.1932E+01  1.3127E+02 -1.5249E+01 -1.5249E+01  0.0000E+00  0.0000E+00  0.0000E+00  0.0000E+00  0.0000E+00
  28.200p -5.0119E+00  0.0000E+00 -9.0779E+00 -9.0779E+00  0.0000E+00  0.0000E+00  0.0000E+00  0.0000E+00  0.0000E+00
   1.401s  1.1974E+04  0.0000E+00  0.0000E+00  0.0000E+00  9.0000E+01  9.0000E+01  9.0000E+01  0.0000E+00  7.8054E-01

  rolling -1.1934E+01  1.3007E+02 -1.5291E+01 -1.5291E+01  0.0000E+00  0.0000E+00  0.0000E+00  0.0000E+00  0.0000E+00
 averages -5.1519E+00  0.0000E+00 -8.9816E+00 -8.9816E+00  0.0000E+00  0.0000E+00  0.0000E+00  0.0000E+00  0.0000E+00
           1.1974E+04  0.0000E+00  0.0000E+00  0.0000E+00  9.0000E+01  9.0000E+01  9.0000E+01  0.0000E+00  7.7281E-01
 ------------------------------------------------------------------------------------------------------------------------
 ------------------------------------------------------------------------------------------------------------------------

     step     eng_tot    temp_tot     eng_cfg     eng_vdw     eng_cou     eng_bnd     eng_ang     eng_dih     eng_tet
 time          eng_pv    temp_rot     vir_cfg     vir_vdw     vir_cou     vir_bnd     vir_ang     vir_con     vir_tet
 cpu time      volume    temp_shl     eng_shl     vir_shl       alpha        beta       gamma     vir_pmf       press

 ------------------------------------------------------------------------------------------------------------------------
     4800 -1.1933E+01  1.3246E+02 -1.5182E+01 -1.5182E+01  0.0000E+00  0.0000E+00  0.0000E+00  0.0000E+00  0.0000E+00
  28.800p -4.1180E+00  0.0000E+00 -1.1361E+01 -1.1361E+01  0.0000E+00  0.0000E+00  0.0000E+00  0.0000E+00  0.0000E+00
   1.429s  1.1974E+04  0.0000E+00  0.0000E+00  0.0000E+00  9.0000E+01  9.0000E+01  9.0000E+01  0.0000E+00  8.8449E-01

  rolling -1.1933E+01  1.2933E+02 -1.5127E+01 -1.5127E+01  0.0000E+00  0.0000E+00  0.0000E+00  0.0000E+00  0.0000E+00
 averages -3.9780E+00  0.0000E+00 -1.2132E+01 -1.2132E+01  0.0000E+00  0.0000E+00  0.0000E+00  0.0000E+00  0.0000E+00
           1.1974E+04  0.0000E+00  0.0000E+00  0.0000E+00  9.0000E+01  9.0000E+01  9.0000E+01  0.0000E+00  9.0932E-01
 ------------------------------------------------------------------------------------------------------------------------
     4900 -1.1931E+01  1.3537E+02 -1.5242E+01 -1.5242E+01  0.0000E+00  0.0000E+00  0.0000E+00  0.0000E+00  0.0000E+00
  29.400p -4.2593E+00  0.0000E+00 -1.0637E+01 -1.0637E+01  0.0000E+00  0.0000E+00  0.0000E+00  0.0000E+00  0.0000E+00
   1.458s  1.1974E+04  0.0000E+00  0.0000E+00  0.0000E+00  9.0000E+01  9.0000E+01  9.0000E+01  0.0000E+00  8.6106E-01

  rolling -1.1933E+01  1.3273E+02 -1.5166E+01 -1.5166E+01  0.0000E+00  0.0000E+00  0.0000E+00  0.0000E+00  0.0000E+00
 averages -3.9596E+00  0.0000E+00 -1.1744E+01 -1.1744E+01  0.0000E+00  0.0000E+00  0.0000E+00  0.0000E+00  0.0000E+00
           1.1974E+04  0.0000E+00  0.0000E+00  0.0000E+00  9.0000E+01  9.0000E+01  9.0000E+01  0.0000E+00  9.0214E-01
 ------------------------------------------------------------------------------------------------------------------------
     5000 -1.1926E+01  1.3317E+02 -1.5211E+01 -1.5211E+01  0.0000E+00  0.0000E+00  0.0000E+00  0.0000E+00  0.0000E+00
  30.000p -3.9809E+00  0.0000E+00 -1.1743E+01 -1.1743E+01  0.0000E+00  0.0000E+00  0.0000E+00  0.0000E+00  0.0000E+00
   1.486s  1.1974E+04  0.0000E+00  0.0000E+00  0.0000E+00  9.0000E+01  9.0000E+01  9.0000E+01  0.0000E+00  9.0334E-01

  rolling -1.1928E+01  1.3209E+02 -1.5147E+01 -1.5147E+01  0.0000E+00  0.0000E+00  0.0000E+00  0.0000E+00  0.0000E+00
 averages -3.6833E+00  0.0000E+00 -1.2623E+01 -1.2623E+01  0.0000E+00  0.0000E+00  0.0000E+00  0.0000E+00  0.0000E+00
           1.1974E+04  0.0000E+00  0.0000E+00  0.0000E+00  9.0000E+01  9.0000E+01  9.0000E+01  0.0000E+00  9.3895E-01
 ------------------------------------------------------------------------------------------------------------------------
     5100 -1.1924E+01  1.3112E+02 -1.5247E+01 -1.5247E+01  0.0000E+00  0.0000E+00  0.0000E+00  0.0000E+00  0.0000E+00
  30.600p -4.7217E+00  0.0000E+00 -9.9657E+00 -9.9657E+00  0.0000E+00  0.0000E+00  0.0000E+00  0.0000E+00  0.0000E+00
   1.519s  1.1974E+04  0.0000E+00  0.0000E+00  0.0000E+00  9.0000E+01  9.0000E+01  9.0000E+01  0.0000E+00  8.1917E-01

  rolling -1.1926E+01  1.2755E+02 -1.5075E+01 -1.5075E+01  0.0000E+00  0.0000E+00  0.0000E+00  0.0000E+00  0.0000E+00
 averages -3.1550E+00  0.0000E+00 -1.4738E+01 -1.4738E+01  0.0000E+00  0.0000E+00  0.0000E+00  0.0000E+00  0.0000E+00
           1.1974E+04  0.0000E+00  0.0000E+00  0.0000E+00  9.0000E+01  9.0000E+01  9.0000E+01  0.0000E+00  1.0189E+00
 ------------------------------------------------------------------------------------------------------------------------
     5200 -1.1933E+01  1.2613E+02 -1.5240E+01 -1.5240E+01  0.0000E+00  0.0000E+00  0.0000E+00  0.0000E+00  0.0000E+00
  31.200p -5.0999E+00  0.0000E+00 -9.6331E+00 -9.6331E+00  0.0000E+00  0.0000E+00  0.0000E+00  0.0000E+00  0.0000E+00
   1.548s  1.1974E+04  0.0000E+00  0.0000E+00  0.0000E+00  9.0000E+01  9.0000E+01  9.0000E+01  0.0000E+00  7.9006E-01

  rolling -1.1934E+01  1.2624E+02 -1.5167E+01 -1.5167E+01  0.0000E+00  0.0000E+00  0.0000E+00  0.0000E+00  0.0000E+00
 averages -4.6103E+00  0.0000E+00 -1.0865E+01 -1.0865E+01  0.0000E+00  0.0000E+00  0.0000E+00  0.0000E+00  0.0000E+00
           1.1974E+04  0.0000E+00  0.0000E+00  0.0000E+00  9.0000E+01  9.0000E+01  9.0000E+01  0.0000E+00  8.4460E-01
 ------------------------------------------------------------------------------------------------------------------------
     5300 -1.1930E+01  1.1644E+02 -1.5096E+01 -1.5096E+01  0.0000E+00  0.0000E+00  0.0000E+00  0.0000E+00  0.0000E+00
  31.800p -4.5011E+00  0.0000E+00 -1.2594E+01 -1.2594E+01  0.0000E+00  0.0000E+00  0.0000E+00  0.0000E+00  0.0000E+00
   1.576s  1.1974E+04  0.0000E+00  0.0000E+00  0.0000E+00  9.0000E+01  9.0000E+01  9.0000E+01  0.0000E+00  8.9228E-01

  rolling -1.1932E+01  1.2293E+02 -1.5222E+01 -1.5222E+01  0.0000E+00  0.0000E+00  0.0000E+00  0.0000E+00  0.0000E+00
 averages -4.9244E+00  0.0000E+00 -1.0634E+01 -1.0634E+01  0.0000E+00  0.0000E+00  0.0000E+00  0.0000E+00  0.0000E+00
           1.1974E+04  0.0000E+00  0.0000E+00  0.0000E+00  9.0000E+01  9.0000E+01  9.0000E+01  0.0000E+00  8.2484E-01
 ------------------------------------------------------------------------------------------------------------------------
     5400 -1.1935E+01  1.1900E+02 -1.5349E+01 -1.5349E+01  0.0000E+00  0.0000E+00  0.0000E+00  0.0000E+00  0.0000E+00
  32.400p -6.2819E+00  0.0000E+00 -7.5880E+00 -7.5880E+00  0.0000E+00  0.0000E+00  0.0000E+00  0.0000E+00  0.0000E+00
   1.604s  1.1974E+04  0.0000E+00  0.0000E+00  0.0000E+00  9.0000E+01  9.0000E+01  9.0000E+01  0.0000E+00  6.7933E-01

  rolling -1.1931E+01  1.1566E+02 -1.5156E+01 -1.5156E+01  0.0000E+00  0.0000E+00  0.0000E+00  0.0000E+00  0.0000E+00
 averages -5.0483E+00  0.0000E+00 -1.1262E+01 -1.1262E+01  0.0000E+00  0.0000E+00  0.0000E+00  0.0000E+00  0.0000E+00
           1.1974E+04  0.0000E+00  0.0000E+00  0.0000E+00  9.0000E+01  9.0000E+01  9.0000E+01  0.0000E+00  8.3137E-01
 ------------------------------------------------------------------------------------------------------------------------
     5500 -1.1924E+01  1.1553E+02 -1.5368E+01 -1.5368E+01  0.0000E+00  0.0000E+00  0.0000E+00  0.0000E+00  0.0000E+00
  33.000p -6.4114E+00  0.0000E+00 -7.8291E+00 -7.8291E+00  0.0000E+00  0.0000E+00  0.0000E+00  0.0000E+00  0.0000E+00
   1.632s  1.1974E+04  0.0000E+00  0.0000E+00  0.0000E+00  9.0000E+01  9.0000E+01  9.0000E+01  0.0000E+00  6.7990E-01

  rolling -1.1929E+01  1.1687E+02 -1.5347E+01 -1.5347E+01  0.0000E+00  0.0000E+00  0.0000E+00  0.0000E+00  0.0000E+00
 averages -6.3896E+00  0.0000E+00 -7.6109E+00 -7.6109E+00  0.0000E+00  0.0000E+00  0.0000E+00  0.0000E+00  0.0000E+00
           1.1974E+04  0.0000E+00  0.0000E+00  0.0000E+00  9.0000E+01  9.0000E+01  9.0000E+01  0.0000E+00  6.7416E-01
 ------------------------------------------------------------------------------------------------------------------------
 ------------------------------------------------------------------------------------------------------------------------

     step     eng_tot    temp_tot     eng_cfg     eng_vdw     eng_cou     eng_bnd     eng_ang     eng_dih     eng_tet
 time          eng_pv    temp_rot     vir_cfg     vir_vdw     vir_cou     vir_bnd     vir_ang     vir_con     vir_tet
 cpu time      volume    temp_shl     eng_shl     vir_shl       alpha        beta       gamma     vir_pmf       press

 ------------------------------------------------------------------------------------------------------------------------
     5600 -1.1932E+01  1.1329E+02 -1.5420E+01 -1.5420E+01  0.0000E+00  0.0000E+00  0.0000E+00  0.0000E+00  0.0000E+00
  33.600p -7.2157E+00  0.0000E+00 -5.9407E+00 -5.9407E+00  0.0000E+00  0.0000E+00  0.0000E+00  0.0000E+00  0.0000E+00
   1.660s  1.1974E+04  0.0000E+00  0.0000E+00  0.0000E+00  9.0000E+01  9.0000E+01  9.0000E+01  0.0000E+00  5.9026E-01

  rolling -1.1928E+01  1.1309E+02 -1.5355E+01 -1.5355E+01  0.0000E+00  0.0000E+00  0.0000E+00  0.0000E+00  0.0000E+00
 averages -6.4551E+00  0.0000E+00 -8.0611E+00 -8.0611E+00  0.0000E+00  0.0000E+00  0.0000E+00  0.0000E+00  0.0000E+00
           1.1974E+04  0.0000E+00  0.0000E+00  0.0000E+00  9.0000E+01  9.0000E+01  9.0000E+01  0.0000E+00  6.8303E-01
 ------------------------------------------------------------------------------------------------------------------------
     5700 -1.1937E+01  1.1760E+02 -1.5649E+01 -1.5649E+01  0.0000E+00  0.0000E+00  0.0000E+00  0.0000E+00  0.0000E+00
  34.200p -8.5527E+00  0.0000E+00 -1.9058E+00 -1.9058E+00  0.0000E+00  0.0000E+00  0.0000E+00  0.0000E+00  0.0000E+00
   1.688s  1.1974E+04  0.0000E+00  0.0000E+00  0.0000E+00  9.0000E+01  9.0000E+01  9.0000E+01  0.0000E+00  4.2517E-01

  rolling -1.1934E+01  1.1609E+02 -1.5557E+01 -1.5557E+01  0.0000E+00  0.0000E+00  0.0000E+00  0.0000E+00  0.0000E+00
 averages -7.8873E+00  0.0000E+00 -3.8759E+00 -3.8759E+00  0.0000E+00  0.0000E+00  0.0000E+00  0.0000E+00  0.0000E+00
           1.1974E+04  0.0000E+00  0.0000E+00  0.0000E+00  9.0000E+01  9.0000E+01  9.0000E+01  0.0000E+00  5.0750E-01
 ------------------------------------------------------------------------------------------------------------------------
     5800 -1.1933E+01  1.1931E+02 -1.5746E+01 -1.5746E+01  0.0000E+00  0.0000E+00  0.0000E+00  0.0000E+00  0.0000E+00
  34.800p -9.0383E+00  0.0000E+00 -4.6101E-01 -4.6101E-01  0.0000E+00  0.0000E+00  0.0000E+00  0.0000E+00  0.0000E+00
   1.716s  1.1974E+04  0.0000E+00  0.0000E+00  0.0000E+00  9.0000E+01  9.0000E+01  9.0000E+01  0.0000E+00  3.6652E-01

  rolling -1.1935E+01  1.1214E+02 -1.5494E+01 -1.5494E+01  0.0000E+00  0.0000E+00  0.0000E+00  0.0000E+00  0.0000E+00
 averages -7.5967E+00  0.0000E+00 -5.2106E+00 -5.2106E+00  0.0000E+00  0.0000E+00  0.0000E+00  0.0000E+00  0.0000E+00
           1.1974E+04  0.0000E+00  0.0000E+00  0.0000E+00  9.0000E+01  9.0000E+01  9.0000E+01  0.0000E+00  5.5477E-01
 ------------------------------------------------------------------------------------------------------------------------
     5900 -1.1933E+01  1.1700E+02 -1.5681E+01 -1.5681E+01  0.0000E+00  0.0000E+00  0.0000E+00  0.0000E+00  0.0000E+00
  35.400p -8.4526E+00  0.0000E+00 -2.4022E+00 -2.4022E+00  0.0000E+00  0.0000E+00  0.0000E+00  0.0000E+00  0.0000E+00
   1.744s  1.1974E+04  0.0000E+00  0.0000E+00  0.0000E+00  9.0000E+01  9.0000E+01  9.0000E+01  0.0000E+00  4.4528E-01

  rolling -1.1935E+01  1.1228E+02 -1.5526E+01 -1.5526E+01  0.0000E+00  0.0000E+00  0.0000E+00  0.0000E+00  0.0000E+00
 averages -7.7912E+00  0.0000E+00 -4.7005E+00 -4.7005E+00  0.0000E+00  0.0000E+00  0.0000E+00  0.0000E+00  0.0000E+00
           1.1974E+04  0.0000E+00  0.0000E+00  0.0000E+00  9.0000E+01  9.0000E+01  9.0000E+01  0.0000E+00  5.3272E-01
 ------------------------------------------------------------------------------------------------------------------------
     6000 -1.1926E+01  1.1188E+02 -1.5476E+01 -1.5476E+01  0.0000E+00  0.0000E+00  0.0000E+00  0.0000E+00  0.0000E+00
  36.000p -7.1850E+00  0.0000E+00 -6.4359E+00 -6.4359E+00  0.0000E+00  0.0000E+00  0.0000E+00  0.0000E+00  0.0000E+00
   1.773s  1.1974E+04  0.0000E+00  0.0000E+00  0.0000E+00  9.0000E+01  9.0000E+01  9.0000E+01  0.0000E+00  6.0796E-01

  rolling -1.1931E+01  1.1314E+02 -1.5541E+01 -1.5541E+01  0.0000E+00  0.0000E+00  0.0000E+00  0.0000E+00  0.0000E+00
 averages -7.5510E+00  0.0000E+00 -5.3231E+00 -5.3231E+00  0.0000E+00  0.0000E+00  0.0000E+00  0.0000E+00  0.0000E+00
           1.1974E+04  0.0000E+00  0.0000E+00  0.0000E+00  9.0000E+01  9.0000E+01  9.0000E+01  0.0000E+00  5.6263E-01
 ------------------------------------------------------------------------------------------------------------------------
     6100 -1.1932E+01  1.1173E+02 -1.5406E+01 -1.5406E+01  0.0000E+00  0.0000E+00  0.0000E+00  0.0000E+00  0.0000E+00
  36.600p -6.5534E+00  0.0000E+00 -8.1431E+00 -8.1431E+00  0.0000E+00  0.0000E+00  0.0000E+00  0.0000E+00  0.0000E+00
   1.806s  1.1974E+04  0.0000E+00  0.0000E+00  0.0000E+00  9.0000E+01  9.0000E+01  9.0000E+01  0.0000E+00  6.8269E-01

  rolling -1.1930E+01  1.1215E+02 -1.5456E+01 -1.5456E+01  0.0000E+00  0.0000E+00  0.0000E+00  0.0000E+00  0.0000E+00
 averages -6.9435E+00  0.0000E+00 -7.0549E+00 -7.0549E+00  0.0000E+00  0.0000E+00  0.0000E+00  0.0000E+00  0.0000E+00
           1.1974E+04  0.0000E+00  0.0000E+00  0.0000E+00  9.0000E+01  9.0000E+01  9.0000E+01  0.0000E+00  6.3601E-01
 ------------------------------------------------------------------------------------------------------------------------
     6200 -1.1926E+01  1.2378E+02 -1.5687E+01 -1.5687E+01  0.0000E+00  0.0000E+00  0.0000E+00  0.0000E+00  0.0000E+00
  37.200p -7.6029E+00  0.0000E+00 -3.8523E+00 -3.8523E+00  0.0000E+00  0.0000E+00  0.0000E+00  0.0000E+00  0.0000E+00
   1.835s  1.1974E+04  0.0000E+00  0.0000E+00  0.0000E+00  9.0000E+01  9.0000E+01  9.0000E+01  0.0000E+00  5.2876E-01

  rolling -1.1929E+01  1.1738E+02 -1.5536E+01 -1.5536E+01  0.0000E+00  0.0000E+00  0.0000E+00  0.0000E+00  0.0000E+00
 averages -7.0011E+00  0.0000E+00 -6.2593E+00 -6.2593E+00  0.0000E+00  0.0000E+00  0.0000E+00  0.0000E+00  0.0000E+00
           1.1974E+04  0.0000E+00  0.0000E+00  0.0000E+00  9.0000E+01  9.0000E+01  9.0000E+01  0.0000E+00  6.1614E-01
 ------------------------------------------------------------------------------------------------------------------------
     6300 -1.1928E+01  1.0747E+02 -1.5030E+01 -1.5030E+01  0.0000E+00  0.0000E+00  0.0000E+00  0.0000E+00  0.0000E+00
  37.800p -4.5528E+00  0.0000E+00 -1.3721E+01 -1.3721E+01  0.0000E+00  0.0000E+00  0.0000E+00  0.0000E+00  0.0000E+00
   1.863s  1.1974E+04  0.0000E+00  0.0000E+00  0.0000E+00  9.0000E+01  9.0000E+01  9.0000E+01  0.0000E+00  9.1584E-01

  rolling -1.1926E+01  1.1292E+02 -1.5270E+01 -1.5270E+01  0.0000E+00  0.0000E+00  0.0000E+00  0.0000E+00  0.0000E+00
 averages -5.7549E+00  0.0000E+00 -9.9361E+00 -9.9361E+00  0.0000E+00  0.0000E+00  0.0000E+00  0.0000E+00  0.0000E+00
           1.1974E+04  0.0000E+00  0.0000E+00  0.0000E+00  9.0000E+01  9.0000E+01  9.0000E+01  0.0000E+00  7.6506E-01
 ------------------------------------------------------------------------------------------------------------------------
 ------------------------------------------------------------------------------------------------------------------------

     step     eng_tot    temp_tot     eng_cfg     eng_vdw     eng_cou     eng_bnd     eng_ang     eng_dih     eng_tet
 time          eng_pv    temp_rot     vir_cfg     vir_vdw     vir_cou     vir_bnd     vir_ang     vir_con     vir_tet
 cpu time      volume    temp_shl     eng_shl     vir_shl       alpha        beta       gamma     vir_pmf       press

 ------------------------------------------------------------------------------------------------------------------------
     6400 -1.1929E+01  1.2428E+02 -1.5424E+01 -1.5424E+01  0.0000E+00  0.0000E+00  0.0000E+00  0.0000E+00  0.0000E+00
  38.400p -5.9335E+00  0.0000E+00 -7.9895E+00 -7.9895E+00  0.0000E+00  0.0000E+00  0.0000E+00  0.0000E+00  0.0000E+00
   1.892s  1.1974E+04  0.0000E+00  0.0000E+00  0.0000E+00  9.0000E+01  9.0000E+01  9.0000E+01  0.0000E+00  7.1233E-01

  rolling -1.1927E+01  1.1817E+02 -1.5302E+01 -1.5302E+01  0.0000E+00  0.0000E+00  0.0000E+00  0.0000E+00  0.0000E+00
 averages -5.6319E+00  0.0000E+00 -9.5353E+00 -9.5353E+00  0.0000E+00  0.0000E+00  0.0000E+00  0.0000E+00  0.0000E+00
           1.1974E+04  0.0000E+00  0.0000E+00  0.0000E+00  9.0000E+01  9.0000E+01  9.0000E+01  0.0000E+00  7.6265E-01
 ------------------------------------------------------------------------------------------------------------------------
     6500 -1.1931E+01  1.2727E+02 -1.5362E+01 -1.5362E+01  0.0000E+00  0.0000E+00  0.0000E+00  0.0000E+00  0.0000E+00
  39.000p -6.1809E+00  0.0000E+00 -6.5675E+00 -6.5675E+00  0.0000E+00  0.0000E+00  0.0000E+00  0.0000E+00  0.0000E+00
   1.920s  1.1974E+04  0.0000E+00  0.0000E+00  0.0000E+00  9.0000E+01  9.0000E+01  9.0000E+01  0.0000E+00  6.5842E-01

  rolling -1.1930E+01  1.2262E+02 -1.5288E+01 -1.5288E+01  0.0000E+00  0.0000E+00  0.0000E+00  0.0000E+00  0.0000E+00
 averages -5.5250E+00  0.0000E+00 -9.0819E+00 -9.0819E+00  0.0000E+00  0.0000E+00  0.0000E+00  0.0000E+00  0.0000E+00
           1.1974E+04  0.0000E+00  0.0000E+00  0.0000E+00  9.0000E+01  9.0000E+01  9.0000E+01  0.0000E+00  7.5560E-01
 ------------------------------------------------------------------------------------------------------------------------
     6600 -1.1944E+01  1.2643E+02 -1.5214E+01 -1.5214E+01  0.0000E+00  0.0000E+00  0.0000E+00  0.0000E+00  0.0000E+00
  39.600p -4.9877E+00  0.0000E+00 -9.8433E+00 -9.8433E+00  0.0000E+00  0.0000E+00  0.0000E+00  0.0000E+00  0.0000E+00
   1.949s  1.1974E+04  0.0000E+00  0.0000E+00  0.0000E+00  9.0000E+01  9.0000E+01  9.0000E+01  0.0000E+00  8.0018E-01

  rolling -1.1935E+01  1.2484E+02 -1.5216E+01 -1.5216E+01  0.0000E+00  0.0000E+00  0.0000E+00  0.0000E+00  0.0000E+00
 averages -5.1295E+00  0.0000E+00 -9.6837E+00 -9.6837E+00  0.0000E+00  0.0000E+00  0.0000E+00  0.0000E+00  0.0000E+00
           1.1974E+04  0.0000E+00  0.0000E+00  0.0000E+00  9.0000E+01  9.0000E+01  9.0000E+01  0.0000E+00  7.8855E-01
 ------------------------------------------------------------------------------------------------------------------------
     6700 -1.1932E+01  1.2904E+02 -1.5192E+01 -1.5192E+01  0.0000E+00  0.0000E+00  0.0000E+00  0.0000E+00  0.0000E+00
  40.200p -4.8144E+00  0.0000E+00 -9.8673E+00 -9.8673E+00  0.0000E+00  0.0000E+00  0.0000E+00  0.0000E+00  0.0000E+00
   1.977s  1.1974E+04  0.0000E+00  0.0000E+00  0.0000E+00  9.0000E+01  9.0000E+01  9.0000E+01  0.0000E+00  8.0879E-01

  rolling -1.1936E+01  1.3015E+02 -1.5276E+01 -1.5276E+01  0.0000E+00  0.0000E+00  0.0000E+00  0.0000E+00  0.0000E+00
 averages -5.0474E+00  0.0000E+00 -9.2344E+00 -9.2344E+00  0.0000E+00  0.0000E+00  0.0000E+00  0.0000E+00  0.0000E+00
           1.1974E+04  0.0000E+00  0.0000E+00  0.0000E+00  9.0000E+01  9.0000E+01  9.0000E+01  0.0000E+00  7.8418E-01
 ------------------------------------------------------------------------------------------------------------------------
     6800 -1.1928E+01  1.2778E+02 -1.5111E+01 -1.5111E+01  0.0000E+00  0.0000E+00  0.0000E+00  0.0000E+00  0.0000E+00
  40.800p -3.8652E+00  0.0000E+00 -1.2678E+01 -1.2678E+01  0.0000E+00  0.0000E+00  0.0000E+00  0.0000E+00  0.0000E+00
   2.006s  1.1974E+04  0.0000E+00  0.0000E+00  0.0000E+00  9.0000E+01  9.0000E+01  9.0000E+01  0.0000E+00  9.2890E-01

  rolling -1.1929E+01  1.2797E+02 -1.5133E+01 -1.5133E+01  0.0000E+00  0.0000E+00  0.0000E+00  0.0000E+00  0.0000E+00
 averages -4.3443E+00  0.0000E+00 -1.1275E+01 -1.1275E+01  0.0000E+00  0.0000E+00  0.0000E+00  0.0000E+00  0.0000E+00
           1.1974E+04  0.0000E+00  0.0000E+00  0.0000E+00  9.0000E+01  9.0000E+01  9.0000E+01  0.0000E+00  8.6764E-01
 ------------------------------------------------------------------------------------------------------------------------
     6900 -1.1928E+01  1.3574E+02 -1.5388E+01 -1.5388E+01  0.0000E+00  0.0000E+00  0.0000E+00  0.0000E+00  0.0000E+00
  41.400p -5.1740E+00  0.0000E+00 -8.2711E+00 -8.2711E+00  0.0000E+00  0.0000E+00  0.0000E+00  0.0000E+00  0.0000E+00
   2.034s  1.1974E+04  0.0000E+00  0.0000E+00  0.0000E+00  9.0000E+01  9.0000E+01  9.0000E+01  0.0000E+00  7.5800E-01

  rolling -1.1925E+01  1.2831E+02 -1.5129E+01 -1.5129E+01  0.0000E+00  0.0000E+00  0.0000E+00  0.0000E+00  0.0000E+00
 averages -3.9198E+00  0.0000E+00 -1.2480E+01 -1.2480E+01  0.0000E+00  0.0000E+00  0.0000E+00  0.0000E+00  0.0000E+00
           1.1974E+04  0.0000E+00  0.0000E+00  0.0000E+00  9.0000E+01  9.0000E+01  9.0000E+01  0.0000E+00  9.2168E-01
 ------------------------------------------------------------------------------------------------------------------------
     7000 -1.1928E+01  1.3298E+02 -1.5378E+01 -1.5378E+01  0.0000E+00  0.0000E+00  0.0000E+00  0.0000E+00  0.0000E+00
  42.000p -5.8876E+00  0.0000E+00 -6.5553E+00 -6.5553E+00  0.0000E+00  0.0000E+00  0.0000E+00  0.0000E+00  0.0000E+00
   2.063s  1.1974E+04  0.0000E+00  0.0000E+00  0.0000E+00  9.0000E+01  9.0000E+01  9.0000E+01  0.0000E+00  6.7444E-01

  rolling -1.1929E+01  1.2973E+02 -1.5226E+01 -1.5226E+01  0.0000E+00  0.0000E+00  0.0000E+00  0.0000E+00  0.0000E+00
 averages -4.7392E+00  0.0000E+00 -1.0081E+01 -1.0081E+01  0.0000E+00  0.0000E+00  0.0000E+00  0.0000E+00  0.0000E+00
           1.1974E+04  0.0000E+00  0.0000E+00  0.0000E+00  9.0000E+01  9.0000E+01  9.0000E+01  0.0000E+00  8.2023E-01
 ------------------------------------------------------------------------------------------------------------------------
     7100 -1.1934E+01  1.2434E+02 -1.5235E+01 -1.5235E+01  0.0000E+00  0.0000E+00  0.0000E+00  0.0000E+00  0.0000E+00
  42.600p -4.5984E+00  0.0000E+00 -1.1419E+01 -1.1419E+01  0.0000E+00  0.0000E+00  0.0000E+00  0.0000E+00  0.0000E+00
   2.096s  1.1974E+04  0.0000E+00  0.0000E+00  0.0000E+00  9.0000E+01  9.0000E+01  9.0000E+01  0.0000E+00  8.6346E-01

  rolling -1.1931E+01  1.2680E+02 -1.5243E+01 -1.5243E+01  0.0000E+00  0.0000E+00  0.0000E+00  0.0000E+00  0.0000E+00
 averages -4.7030E+00  0.0000E+00 -1.0723E+01 -1.0723E+01  0.0000E+00  0.0000E+00  0.0000E+00  0.0000E+00  0.0000E+00
           1.1974E+04  0.0000E+00  0.0000E+00  0.0000E+00  9.0000E+01  9.0000E+01  9.0000E+01  0.0000E+00  8.3999E-01
 ------------------------------------------------------------------------------------------------------------------------
 ------------------------------------------------------------------------------------------------------------------------

     step     eng_tot    temp_tot     eng_cfg     eng_vdw     eng_cou     eng_bnd     eng_ang     eng_dih     eng_tet
 time          eng_pv    temp_rot     vir_cfg     vir_vdw     vir_cou     vir_bnd     vir_ang     vir_con     vir_tet
 cpu time      volume    temp_shl     eng_shl     vir_shl       alpha        beta       gamma     vir_pmf       press

 ------------------------------------------------------------------------------------------------------------------------
     7200 -1.1935E+01  1.2464E+02 -1.5387E+01 -1.5387E+01  0.0000E+00  0.0000E+00  0.0000E+00  0.0000E+00  0.0000E+00
  43.200p -5.9518E+00  0.0000E+00 -7.7626E+00 -7.7626E+00  0.0000E+00  0.0000E+00  0.0000E+00  0.0000E+00  0.0000E+00
   2.124s  1.1974E+04  0.0000E+00  0.0000E+00  0.0000E+00  9.0000E+01  9.0000E+01  9.0000E+01  0.0000E+00  7.0340E-01

  rolling -1.1933E+01  1.1841E+02 -1.5112E+01 -1.5112E+01  0.0000E+00  0.0000E+00  0.0000E+00  0.0000E+00  0.0000E+00
 averages -4.1911E+00  0.0000E+00 -1.3249E+01 -1.3249E+01  0.0000E+00  0.0000E+00  0.0000E+00  0.0000E+00  0.0000E+00
           1.1974E+04  0.0000E+00  0.0000E+00  0.0000E+00  9.0000E+01  9.0000E+01  9.0000E+01  0.0000E+00  9.2681E-01
 ------------------------------------------------------------------------------------------------------------------------
     7300 -1.1927E+01  1.1515E+02 -1.5221E+01 -1.5221E+01  0.0000E+00  0.0000E+00  0.0000E+00  0.0000E+00  0.0000E+00
  43.800p -5.3245E+00  0.0000E+00 -1.0713E+01 -1.0713E+01  0.0000E+00  0.0000E+00  0.0000E+00  0.0000E+00  0.0000E+00
   2.153s  1.1974E+04  0.0000E+00  0.0000E+00  0.0000E+00  9.0000E+01  9.0000E+01  9.0000E+01  0.0000E+00  8.0574E-01

  rolling -1.1931E+01  1.2272E+02 -1.5398E+01 -1.5398E+01  0.0000E+00  0.0000E+00  0.0000E+00  0.0000E+00  0.0000E+00
 averages -6.2715E+00  0.0000E+00 -7.1542E+00 -7.1542E+00  0.0000E+00  0.0000E+00  0.0000E+00  0.0000E+00  0.0000E+00
           1.1974E+04  0.0000E+00  0.0000E+00  0.0000E+00  9.0000E+01  9.0000E+01  9.0000E+01  0.0000E+00  6.7104E-01
 ------------------------------------------------------------------------------------------------------------------------
     7400 -1.1931E+01  1.2377E+02 -1.5644E+01 -1.5644E+01  0.0000E+00  0.0000E+00  0.0000E+00  0.0000E+00  0.0000E+00
  44.400p -7.5813E+00  0.0000E+00 -3.7897E+00 -3.7897E+00  0.0000E+00  0.0000E+00  0.0000E+00  0.0000E+00  0.0000E+00
   2.182s  1.1974E+04  0.0000E+00  0.0000E+00  0.0000E+00  9.0000E+01  9.0000E+01  9.0000E+01  0.0000E+00  5.2600E-01

  rolling -1.1928E+01  1.1621E+02 -1.5327E+01 -1.5327E+01  0.0000E+00  0.0000E+00  0.0000E+00  0.0000E+00  0.0000E+00
 averages -5.7127E+00  0.0000E+00 -9.6900E+00 -9.6900E+00  0.0000E+00  0.0000E+00  0.0000E+00  0.0000E+00  0.0000E+00
           1.1974E+04  0.0000E+00  0.0000E+00  0.0000E+00  9.0000E+01  9.0000E+01  9.0000E+01  0.0000E+00  7.6377E-01
 ------------------------------------------------------------------------------------------------------------------------
     7500 -1.1935E+01  1.1622E+02 -1.5512E+01 -1.5512E+01  0.0000E+00  0.0000E+00  0.0000E+00  0.0000E+00  0.0000E+00
  45.000p -7.4504E+00  0.0000E+00 -5.0303E+00 -5.0303E+00  0.0000E+00  0.0000E+00  0.0000E+00  0.0000E+00  0.0000E+00
   2.212s  1.1974E+04  0.0000E+00  0.0000E+00  0.0000E+00  9.0000E+01  9.0000E+01  9.0000E+01  0.0000E+00  5.5868E-01

  rolling -1.1931E+01  1.1432E+02 -1.5393E+01 -1.5393E+01  0.0000E+00  0.0000E+00  0.0000E+00  0.0000E+00  0.0000E+00
 averages -6.5871E+00  0.0000E+00 -7.5762E+00 -7.5762E+00  0.0000E+00  0.0000E+00  0.0000E+00  0.0000E+00  0.0000E+00
           1.1974E+04  0.0000E+00  0.0000E+00  0.0000E+00  9.0000E+01  9.0000E+01  9.0000E+01  0.0000E+00  6.6523E-01
 ------------------------------------------------------------------------------------------------------------------------
     7600 -1.1932E+01  1.1390E+02 -1.5510E+01 -1.5510E+01  0.0000E+00  0.0000E+00  0.0000E+00  0.0000E+00  0.0000E+00
  45.600p -7.2086E+00  0.0000E+00 -6.1338E+00 -6.1338E+00  0.0000E+00  0.0000E+00  0.0000E+00  0.0000E+00  0.0000E+00
   2.240s  1.1974E+04  0.0000E+00  0.0000E+00  0.0000E+00  9.0000E+01  9.0000E+01  9.0000E+01  0.0000E+00  6.0053E-01

  rolling -1.1934E+01  1.1381E+02 -1.5474E+01 -1.5474E+01  0.0000E+00  0.0000E+00  0.0000E+00  0.0000E+00  0.0000E+00
 averages -7.2890E+00  0.0000E+00 -5.7970E+00 -5.7970E+00  0.0000E+00  0.0000E+00  0.0000E+00  0.0000E+00  0.0000E+00
           1.1974E+04  0.0000E+00  0.0000E+00  0.0000E+00  9.0000E+01  9.0000E+01  9.0000E+01  0.0000E+00  5.8545E-01
 ------------------------------------------------------------------------------------------------------------------------
     7700 -1.1938E+01  1.1896E+02 -1.5733E+01 -1.5733E+01  0.0000E+00  0.0000E+00  0.0000E+00  0.0000E+00  0.0000E+00
  46.200p -8.5171E+00  0.0000E+00 -2.0418E+00 -2.0418E+00  0.0000E+00  0.0000E+00  0.0000E+00  0.0000E+00  0.0000E+00
   2.268s  1.1974E+04  0.0000E+00  0.0000E+00  0.0000E+00  9.0000E+01  9.0000E+01  9.0000E+01  0.0000E+00  4.3510E-01

  rolling -1.1933E+01  1.1518E+02 -1.5581E+01 -1.5581E+01  0.0000E+00  0.0000E+00  0.0000E+00  0.0000E+00  0.0000E+00
 averages -7.8036E+00  0.0000E+00 -4.3500E+00 -4.3500E+00  0.0000E+00  0.0000E+00  0.0000E+00  0.0000E+00  0.0000E+00
           1.1974E+04  0.0000E+00  0.0000E+00  0.0000E+00  9.0000E+01  9.0000E+01  9.0000E+01  0.0000E+00  5.2572E-01
 ------------------------------------------------------------------------------------------------------------------------
     7800 -1.1939E+01  1.1657E+02 -1.5670E+01 -1.5670E+01  0.0000E+00  0.0000E+00  0.0000E+00  0.0000E+00  0.0000E+00
  46.800p -8.5881E+00  0.0000E+00 -2.0333E+00 -2.0333E+00  0.0000E+00  0.0000E+00  0.0000E+00  0.0000E+00  0.0000E+00
   2.297s  1.1974E+04  0.0000E+00  0.0000E+00  0.0000E+00  9.0000E+01  9.0000E+01  9.0000E+01  0.0000E+00  4.2779E-01

  rolling -1.1938E+01  1.1266E+02 -1.5536E+01 -1.5536E+01  0.0000E+00  0.0000E+00  0.0000E+00  0.0000E+00  0.0000E+00
 averages -7.7931E+00  0.0000E+00 -4.6622E+00 -4.6622E+00  0.0000E+00  0.0000E+00  0.0000E+00  0.0000E+00  0.0000E+00
           1.1974E+04  0.0000E+00  0.0000E+00  0.0000E+00  9.0000E+01  9.0000E+01  9.0000E+01  0.0000E+00  5.3216E-01
 ------------------------------------------------------------------------------------------------------------------------
     7900 -1.1939E+01  1.1784E+02 -1.5683E+01 -1.5683E+01  0.0000E+00  0.0000E+00  0.0000E+00  0.0000E+00  0.0000E+00
  47.400p -8.8271E+00  0.0000E+00 -1.1472E+00 -1.1472E+00  0.0000E+00  0.0000E+00  0.0000E+00  0.0000E+00  0.0000E+00
   2.325s  1.1974E+04  0.0000E+00  0.0000E+00  0.0000E+00  9.0000E+01  9.0000E+01  9.0000E+01  0.0000E+00  3.9246E-01

  rolling -1.1940E+01  1.1228E+02 -1.5519E+01 -1.5519E+01  0.0000E+00  0.0000E+00  0.0000E+00  0.0000E+00  0.0000E+00
 averages -7.8414E+00  0.0000E+00 -4.5276E+00 -4.5276E+00  0.0000E+00  0.0000E+00  0.0000E+00  0.0000E+00  0.0000E+00
           1.1974E+04  0.0000E+00  0.0000E+00  0.0000E+00  9.0000E+01  9.0000E+01  9.0000E+01  0.0000E+00  5.2512E-01
 ------------------------------------------------------------------------------------------------------------------------
 ------------------------------------------------------------------------------------------------------------------------

     step     eng_tot    temp_tot     eng_cfg     eng_vdw     eng_cou     eng_bnd     eng_ang     eng_dih     eng_tet
 time          eng_pv    temp_rot     vir_cfg     vir_vdw     vir_cou     vir_bnd     vir_ang     vir_con     vir_tet
 cpu time      volume    temp_shl     eng_shl     vir_shl       alpha        beta       gamma     vir_pmf       press

 ------------------------------------------------------------------------------------------------------------------------
     8000 -1.1935E+01  1.1744E+02 -1.5602E+01 -1.5602E+01  0.0000E+00  0.0000E+00  0.0000E+00  0.0000E+00  0.0000E+00
  48.000p -7.8155E+00  0.0000E+00 -4.0026E+00 -4.0026E+00  0.0000E+00  0.0000E+00  0.0000E+00  0.0000E+00  0.0000E+00
   2.353s  1.1974E+04  0.0000E+00  0.0000E+00  0.0000E+00  9.0000E+01  9.0000E+01  9.0000E+01  0.0000E+00  5.1700E-01

  rolling -1.1936E+01  1.1522E+02 -1.5564E+01 -1.5564E+01  0.0000E+00  0.0000E+00  0.0000E+00  0.0000E+00  0.0000E+00
 averages -7.9787E+00  0.0000E+00 -3.7676E+00 -3.7676E+00  0.0000E+00  0.0000E+00  0.0000E+00  0.0000E+00  0.0000E+00
           1.1974E+04  0.0000E+00  0.0000E+00  0.0000E+00  9.0000E+01  9.0000E+01  9.0000E+01  0.0000E+00  5.0019E-01
 ------------------------------------------------------------------------------------------------------------------------
     8100 -1.1937E+01  1.1704E+02 -1.5499E+01 -1.5499E+01  0.0000E+00  0.0000E+00  0.0000E+00  0.0000E+00  0.0000E+00
  48.600p -7.0776E+00  0.0000E+00 -5.9761E+00 -5.9761E+00  0.0000E+00  0.0000E+00  0.0000E+00  0.0000E+00  0.0000E+00
   2.386s  1.1974E+04  0.0000E+00  0.0000E+00  0.0000E+00  9.0000E+01  9.0000E+01  9.0000E+01  0.0000E+00  6.0269E-01

  rolling -1.1933E+01  1.1405E+02 -1.5445E+01 -1.5445E+01  0.0000E+00  0.0000E+00  0.0000E+00  0.0000E+00  0.0000E+00
 averages -6.9177E+00  0.0000E+00 -6.7853E+00 -6.7853E+00  0.0000E+00  0.0000E+00  0.0000E+00  0.0000E+00  0.0000E+00
           1.1974E+04  0.0000E+00  0.0000E+00  0.0000E+00  9.0000E+01  9.0000E+01  9.0000E+01  0.0000E+00  6.2963E-01
 ------------------------------------------------------------------------------------------------------------------------
     8200 -1.1928E+01  1.1086E+02 -1.5159E+01 -1.5159E+01  0.0000E+00  0.0000E+00  0.0000E+00  0.0000E+00  0.0000E+00
  49.200p -5.0896E+00  0.0000E+00 -1.1936E+01 -1.1936E+01  0.0000E+00  0.0000E+00  0.0000E+00  0.0000E+00  0.0000E+00
   2.414s  1.1974E+04  0.0000E+00  0.0000E+00  0.0000E+00  9.0000E+01  9.0000E+01  9.0000E+01  0.0000E+00  8.4714E-01

[...]
 averages -3.8078E+00  0.0000E+00 -1.2973E+01 -1.2973E+01  0.0000E+00  0.0000E+00  0.0000E+00  0.0000E+00  0.0000E+00
           1.1974E+04  0.0000E+00  0.0000E+00  0.0000E+00  9.0000E+01  9.0000E+01  9.0000E+01  0.0000E+00  9.3927E-01
 ------------------------------------------------------------------------------------------------------------------------
    39000 -1.1927E+01  1.3002E+02 -1.5136E+01 -1.5136E+01  0.0000E+00  0.0000E+00  0.0000E+00  0.0000E+00  0.0000E+00
 234.000p -3.9756E+00  0.0000E+00 -1.2052E+01 -1.2052E+01  0.0000E+00  0.0000E+00  0.0000E+00  0.0000E+00  0.0000E+00
  11.261s  1.1974E+04  0.0000E+00  0.0000E+00  0.0000E+00  9.0000E+01  9.0000E+01  9.0000E+01  0.0000E+00  9.0783E-01

  rolling -1.1928E+01  1.2943E+02 -1.5125E+01 -1.5125E+01  0.0000E+00  0.0000E+00  0.0000E+00  0.0000E+00  0.0000E+00
 averages -3.7279E+00  0.0000E+00 -1.2862E+01 -1.2862E+01  0.0000E+00  0.0000E+00  0.0000E+00  0.0000E+00  0.0000E+00
           1.1974E+04  0.0000E+00  0.0000E+00  0.0000E+00  9.0000E+01  9.0000E+01  9.0000E+01  0.0000E+00  9.4173E-01
 ------------------------------------------------------------------------------------------------------------------------
    39100 -1.1929E+01  1.2666E+02 -1.5061E+01 -1.5061E+01  0.0000E+00  0.0000E+00  0.0000E+00  0.0000E+00  0.0000E+00
 234.600p -3.9909E+00  0.0000E+00 -1.2336E+01 -1.2336E+01  0.0000E+00  0.0000E+00  0.0000E+00  0.0000E+00  0.0000E+00
  11.294s  1.1974E+04  0.0000E+00  0.0000E+00  0.0000E+00  9.0000E+01  9.0000E+01  9.0000E+01  0.0000E+00  9.1058E-01

  rolling -1.1924E+01  1.3174E+02 -1.5200E+01 -1.5200E+01  0.0000E+00  0.0000E+00  0.0000E+00  0.0000E+00  0.0000E+00
 averages -4.5088E+00  0.0000E+00 -1.0361E+01 -1.0361E+01  0.0000E+00  0.0000E+00  0.0000E+00  0.0000E+00  0.0000E+00
           1.1974E+04  0.0000E+00  0.0000E+00  0.0000E+00  9.0000E+01  9.0000E+01  9.0000E+01  0.0000E+00  8.3839E-01
 ------------------------------------------------------------------------------------------------------------------------
 ------------------------------------------------------------------------------------------------------------------------

     step     eng_tot    temp_tot     eng_cfg     eng_vdw     eng_cou     eng_bnd     eng_ang     eng_dih     eng_tet
 time          eng_pv    temp_rot     vir_cfg     vir_vdw     vir_cou     vir_bnd     vir_ang     vir_con     vir_tet
 cpu time      volume    temp_shl     eng_shl     vir_shl       alpha        beta       gamma     vir_pmf       press

 ------------------------------------------------------------------------------------------------------------------------
    39200 -1.1930E+01  1.2209E+02 -1.5002E+01 -1.5002E+01  0.0000E+00  0.0000E+00  0.0000E+00  0.0000E+00  0.0000E+00
 235.200p -3.5841E+00  0.0000E+00 -1.4132E+01 -1.4132E+01  0.0000E+00  0.0000E+00  0.0000E+00  0.0000E+00  0.0000E+00
  11.322s  1.1974E+04  0.0000E+00  0.0000E+00  0.0000E+00  9.0000E+01  9.0000E+01  9.0000E+01  0.0000E+00  9.7639E-01

  rolling -1.1927E+01  1.2512E+02 -1.5051E+01 -1.5051E+01  0.0000E+00  0.0000E+00  0.0000E+00  0.0000E+00  0.0000E+00
 averages -3.8544E+00  0.0000E+00 -1.2969E+01 -1.2969E+01  0.0000E+00  0.0000E+00  0.0000E+00  0.0000E+00  0.0000E+00
           1.1974E+04  0.0000E+00  0.0000E+00  0.0000E+00  9.0000E+01  9.0000E+01  9.0000E+01  0.0000E+00  9.3398E-01
 ------------------------------------------------------------------------------------------------------------------------
    39300 -1.1931E+01  1.2815E+02 -1.5330E+01 -1.5330E+01  0.0000E+00  0.0000E+00  0.0000E+00  0.0000E+00  0.0000E+00
 235.800p -5.3422E+00  0.0000E+00 -8.8432E+00 -8.8432E+00  0.0000E+00  0.0000E+00  0.0000E+00  0.0000E+00  0.0000E+00
  11.351s  1.1974E+04  0.0000E+00  0.0000E+00  0.0000E+00  9.0000E+01  9.0000E+01  9.0000E+01  0.0000E+00  7.6113E-01

  rolling -1.1927E+01  1.2618E+02 -1.5195E+01 -1.5195E+01  0.0000E+00  0.0000E+00  0.0000E+00  0.0000E+00  0.0000E+00
 averages -4.5651E+00  0.0000E+00 -1.1093E+01 -1.1093E+01  0.0000E+00  0.0000E+00  0.0000E+00  0.0000E+00  0.0000E+00
           1.1974E+04  0.0000E+00  0.0000E+00  0.0000E+00  9.0000E+01  9.0000E+01  9.0000E+01  0.0000E+00  8.5448E-01
 ------------------------------------------------------------------------------------------------------------------------
    39400 -1.1931E+01  1.2245E+02 -1.5295E+01 -1.5295E+01  0.0000E+00  0.0000E+00  0.0000E+00  0.0000E+00  0.0000E+00
 236.400p -5.6845E+00  0.0000E+00 -8.6511E+00 -8.6511E+00  0.0000E+00  0.0000E+00  0.0000E+00  0.0000E+00  0.0000E+00
  11.379s  1.1974E+04  0.0000E+00  0.0000E+00  0.0000E+00  9.0000E+01  9.0000E+01  9.0000E+01  0.0000E+00  7.3615E-01

  rolling -1.1932E+01  1.2320E+02 -1.5244E+01 -1.5244E+01  0.0000E+00  0.0000E+00  0.0000E+00  0.0000E+00  0.0000E+00
 averages -5.2081E+00  0.0000E+00 -9.8024E+00 -9.8024E+00  0.0000E+00  0.0000E+00  0.0000E+00  0.0000E+00  0.0000E+00
           1.1974E+04  0.0000E+00  0.0000E+00  0.0000E+00  9.0000E+01  9.0000E+01  9.0000E+01  0.0000E+00  7.8901E-01
 ------------------------------------------------------------------------------------------------------------------------
    39500 -1.1928E+01  1.2402E+02 -1.5513E+01 -1.5513E+01  0.0000E+00  0.0000E+00  0.0000E+00  0.0000E+00  0.0000E+00
 237.000p -6.6438E+00  0.0000E+00 -6.1691E+00 -6.1691E+00  0.0000E+00  0.0000E+00  0.0000E+00  0.0000E+00  0.0000E+00
  11.407s  1.1974E+04  0.0000E+00  0.0000E+00  0.0000E+00  9.0000E+01  9.0000E+01  9.0000E+01  0.0000E+00  6.3145E-01

  rolling -1.1930E+01  1.2076E+02 -1.5325E+01 -1.5325E+01  0.0000E+00  0.0000E+00  0.0000E+00  0.0000E+00  0.0000E+00
 averages -5.8270E+00  0.0000E+00 -8.5912E+00 -8.5912E+00  0.0000E+00  0.0000E+00  0.0000E+00  0.0000E+00  0.0000E+00
           1.1974E+04  0.0000E+00  0.0000E+00  0.0000E+00  9.0000E+01  9.0000E+01  9.0000E+01  0.0000E+00  7.2859E-01
 ------------------------------------------------------------------------------------------------------------------------
    39600 -1.1934E+01  1.1462E+02 -1.5376E+01 -1.5376E+01  0.0000E+00  0.0000E+00  0.0000E+00  0.0000E+00  0.0000E+00
 237.600p -5.9274E+00  0.0000E+00 -9.4548E+00 -9.4548E+00  0.0000E+00  0.0000E+00  0.0000E+00  0.0000E+00  0.0000E+00
  11.435s  1.1974E+04  0.0000E+00  0.0000E+00  0.0000E+00  9.0000E+01  9.0000E+01  9.0000E+01  0.0000E+00  7.4882E-01

  rolling -1.1930E+01  1.1846E+02 -1.5419E+01 -1.5419E+01  0.0000E+00  0.0000E+00  0.0000E+00  0.0000E+00  0.0000E+00
 averages -6.0838E+00  0.0000E+00 -8.4814E+00 -8.4814E+00  0.0000E+00  0.0000E+00  0.0000E+00  0.0000E+00  0.0000E+00
           1.1974E+04  0.0000E+00  0.0000E+00  0.0000E+00  9.0000E+01  9.0000E+01  9.0000E+01  0.0000E+00  7.1711E-01
 ------------------------------------------------------------------------------------------------------------------------
    39700 -1.1934E+01  1.1378E+02 -1.5491E+01 -1.5491E+01  0.0000E+00  0.0000E+00  0.0000E+00  0.0000E+00  0.0000E+00
 238.200p -7.2679E+00  0.0000E+00 -5.9163E+00 -5.9163E+00  0.0000E+00  0.0000E+00  0.0000E+00  0.0000E+00  0.0000E+00
  11.463s  1.1974E+04  0.0000E+00  0.0000E+00  0.0000E+00  9.0000E+01  9.0000E+01  9.0000E+01  0.0000E+00  5.9060E-01

  rolling -1.1930E+01  1.1643E+02 -1.5506E+01 -1.5506E+01  0.0000E+00  0.0000E+00  0.0000E+00  0.0000E+00  0.0000E+00
 averages -7.1099E+00  0.0000E+00 -5.9990E+00 -5.9990E+00  0.0000E+00  0.0000E+00  0.0000E+00  0.0000E+00  0.0000E+00
           1.1974E+04  0.0000E+00  0.0000E+00  0.0000E+00  9.0000E+01  9.0000E+01  9.0000E+01  0.0000E+00  6.0195E-01
 ------------------------------------------------------------------------------------------------------------------------
    39800 -1.1933E+01  1.0553E+02 -1.5323E+01 -1.5323E+01  0.0000E+00  0.0000E+00  0.0000E+00  0.0000E+00  0.0000E+00
 238.800p -6.4151E+00  0.0000E+00 -9.3309E+00 -9.3309E+00  0.0000E+00  0.0000E+00  0.0000E+00  0.0000E+00  0.0000E+00
  11.492s  1.1974E+04  0.0000E+00  0.0000E+00  0.0000E+00  9.0000E+01  9.0000E+01  9.0000E+01  0.0000E+00  7.1696E-01

  rolling -1.1929E+01  1.0942E+02 -1.5400E+01 -1.5400E+01  0.0000E+00  0.0000E+00  0.0000E+00  0.0000E+00  0.0000E+00
 averages -6.8144E+00  0.0000E+00 -7.7232E+00 -7.7232E+00  0.0000E+00  0.0000E+00  0.0000E+00  0.0000E+00  0.0000E+00
           1.1974E+04  0.0000E+00  0.0000E+00  0.0000E+00  9.0000E+01  9.0000E+01  9.0000E+01  0.0000E+00  6.5749E-01
 ------------------------------------------------------------------------------------------------------------------------
    39900 -1.1928E+01  1.0907E+02 -1.5471E+01 -1.5471E+01  0.0000E+00  0.0000E+00  0.0000E+00  0.0000E+00  0.0000E+00
 239.400p -7.4701E+00  0.0000E+00 -6.0282E+00 -6.0282E+00  0.0000E+00  0.0000E+00  0.0000E+00  0.0000E+00  0.0000E+00
  11.520s  1.1974E+04  0.0000E+00  0.0000E+00  0.0000E+00  9.0000E+01  9.0000E+01  9.0000E+01  0.0000E+00  5.8185E-01

  rolling -1.1934E+01  1.0808E+02 -1.5431E+01 -1.5431E+01  0.0000E+00  0.0000E+00  0.0000E+00  0.0000E+00  0.0000E+00
 averages -7.1571E+00  0.0000E+00 -7.0085E+00 -7.0085E+00  0.0000E+00  0.0000E+00  0.0000E+00  0.0000E+00  0.0000E+00
           1.1974E+04  0.0000E+00  0.0000E+00  0.0000E+00  9.0000E+01  9.0000E+01  9.0000E+01  0.0000E+00  6.2216E-01
 ------------------------------------------------------------------------------------------------------------------------
 ------------------------------------------------------------------------------------------------------------------------

     step     eng_tot    temp_tot     eng_cfg     eng_vdw     eng_cou     eng_bnd     eng_ang     eng_dih     eng_tet
 time          eng_pv    temp_rot     vir_cfg     vir_vdw     vir_cou     vir_bnd     vir_ang     vir_con     vir_tet
 cpu time      volume    temp_shl     eng_shl     vir_shl       alpha        beta       gamma     vir_pmf       press

 ------------------------------------------------------------------------------------------------------------------------
    40000 -1.1930E+01  1.0705E+02 -1.5385E+01 -1.5385E+01  0.0000E+00  0.0000E+00  0.0000E+00  0.0000E+00  0.0000E+00
 240.000p -6.9334E+00  0.0000E+00 -7.7129E+00 -7.7129E+00  0.0000E+00  0.0000E+00  0.0000E+00  0.0000E+00  0.0000E+00
  11.548s  1.1974E+04  0.0000E+00  0.0000E+00  0.0000E+00  9.0000E+01  9.0000E+01  9.0000E+01  0.0000E+00  6.5016E-01

  rolling -1.1929E+01  1.0935E+02 -1.5475E+01 -1.5475E+01  0.0000E+00  0.0000E+00  0.0000E+00  0.0000E+00  0.0000E+00
 averages -7.4210E+00  0.0000E+00 -6.1397E+00 -6.1397E+00  0.0000E+00  0.0000E+00  0.0000E+00  0.0000E+00  0.0000E+00
           1.1974E+04  0.0000E+00  0.0000E+00  0.0000E+00  9.0000E+01  9.0000E+01  9.0000E+01  0.0000E+00  5.8759E-01
 ------------------------------------------------------------------------------------------------------------------------


 run terminating. elapsed cpu time =   1.15480E+01, job time =   1.000h, close time = 1000.00s



 run terminated after   40000 steps. final averages calculated over   40000 steps.


 ------------------------------------------------------------------------------------------------------------------------

     step     eng_tot    temp_tot     eng_cfg     eng_vdw     eng_cou     eng_bnd     eng_ang     eng_dih     eng_tet
 time          eng_pv    temp_rot     vir_cfg     vir_vdw     vir_cou     vir_bnd     vir_ang     vir_con     vir_tet
 cpu time      volume    temp_shl     eng_shl     vir_shl       alpha        beta       gamma     vir_pmf       press

 ------------------------------------------------------------------------------------------------------------------------
    40000 -1.1931E+01  1.1978E+02 -1.5316E+01 -1.5316E+01  0.0000E+00  0.0000E+00  0.0000E+00  0.0000E+00  0.0000E+00
 240.000p -5.7900E+00  0.0000E+00 -8.8391E+00 -8.8391E+00  0.0000E+00  0.0000E+00  0.0000E+00  0.0000E+00  0.0000E+00
  11.553s  1.1974E+04  0.0000E+00  0.0000E+00  0.0000E+00  9.0000E+01  9.0000E+01  9.0000E+01  0.0000E+00  7.3667E-01

  r.m.s.   4.1444E-03  8.0881E+00  2.0043E-01  2.0043E-01  0.0000E+00  0.0000E+00  0.0000E+00  0.0000E+00  0.0000E+00
 fluctn.   1.5708E+00  0.0000E+00  3.4601E+00  3.4601E+00  0.0000E+00  0.0000E+00  0.0000E+00  0.0000E+00  0.0000E+00
           8.0084E-11  0.0000E+00  0.0000E+00  0.0000E+00  2.1928E-13  2.1928E-13  2.1928E-13  0.0000E+00  1.6249E-01
 ------------------------------------------------------------------------------------------------------------------------


            Approximate 3D Diffusion  coefficients (10^-9 m^2 / s)

            atom        D 
            Ar         2.7580E+00


                Average pressure tensor                                       r.m.s. fluctuations 

           7.3409E-01 -1.1476E-03 -7.6534E-03                          2.1682E-01  1.2206E-01  1.1903E-01
          -1.1476E-03  7.4057E-01  8.7327E-04                          1.2206E-01  2.1373E-01  1.2624E-01
          -7.6534E-03  8.7327E-04  7.3535E-01                          1.1903E-01  1.2624E-01  2.2088E-01

            trace/3.   7.3667E-01


 sample of final configuration

      i       x(i)        y(i)        z(i)       vx(i)       vy(i)       vz(i)       fx(i)       fy(i)       fz(i)


      1 -4.6754E+00 -7.0581E+00  1.5269E+00  2.2477E+00  1.0061E+00  7.4504E-01  1.7230E+02  3.1950E+02 -1.4915E+02
     14 -7.1477E-01 -5.5035E+00  1.6342E+00 -1.3527E-01 -5.3933E-03 -1.8110E+00 -2.2390E+02  1.6879E+02  1.6369E+01
     27  1.0138E+01  5.6263E+00 -5.1675E+00  2.5781E+00  2.6017E+00  3.4176E+00 -1.4759E+02  2.0290E+02 -3.2483E+01
     40  3.8316E+00 -5.2933E+00 -4.1359E+00  6.9024E-01  1.1188E+00 -1.4760E+00 -7.4648E+02 -3.7475E+02 -5.8166E+02
     53  5.7392E+00 -3.7615E+00 -1.8155E+00  8.7345E-01  9.6927E-01  9.5497E-02  4.8013E+02  4.7043E+02  5.3756E+02
     66 -2.2042E+00 -7.6175E+00 -2.1379E+00 -1.9003E+00  2.7744E+00 -1.4798E+00 -1.6577E+01  4.7153E+02 -5.0162E+01
     79 -1.9050E-01 -3.1424E+00 -5.9416E+00 -4.6983E-02 -1.2775E+00 -2.0592E+00  2.5483E+02 -9.7338E+01  5.2101E+02
     92  1.1368E+01 -6.6180E+00  9.0111E+00 -1.4847E+00  3.0649E+00 -7.7516E-01 -4.8560E+02  4.3423E+02 -4.8314E+02
    105 -9.3735E+00  5.0186E+00 -2.4814E+00 -1.3110E+00 -1.0136E+00 -2.9589E-01 -6.2145E+02 -8.1790E+00 -2.7697E+01
    118  6.6838E+00  7.7846E+00 -2.3788E+00  8.0051E-01 -1.0584E+00 -1.2917E+00  1.3612E+03 -7.6290E+01  1.3034E+03
    131  4.0491E+00  4.9310E+00 -5.6484E+00  1.7917E+00 -1.2698E+00  4.0773E-01  3.0226E+01 -5.7749E+01 -1.4178E+02
    144 -4.7535E+00  1.7570E+00  1.0685E+01  5.9570E-02 -6.6905E-01  4.1139E-01 -1.1340E+02  2.2339E+02  1.0619E+01
    157  5.9638E+00  6.2465E+00  4.7177E+00  1.3736E+00  2.2180E-01 -2.9156E+00  8.8530E+00 -9.3241E+02 -2.9655E+02
    170 -2.9074E+00 -9.7166E+00  1.0523E+01 -1.2363E+00 -7.6869E-01 -1.4096E+00  1.9675E+02 -1.6165E+02 -1.9644E+02
    183 -2.9424E+00 -4.2652E+00 -7.8299E+00  1.7593E-01  1.1426E-01 -7.4637E-01  1.3243E+03  4.5581E+02 -3.8006E+02
    196  1.0371E+01  4.3249E+00  3.4192E+00 -1.3382E-02  1.6965E+00  8.0488E-01 -6.5715E+02  3.2924E+02  6.0599E+02
    209 -6.8131E+00 -9.2428E+00 -7.5338E+00  2.5854E+00  1.5927E+00 -1.2597E+00  6.5431E+02 -1.1349E+02 -2.0082E+02
    222  1.1460E+00  1.2335E+00 -9.3636E+00  3.7636E+00  1.6125E+00  5.4190E-01  4.0455E+02  3.4650E+01 -2.5614E+01
    235  3.0477E+00 -6.3146E+00  7.4425E+00 -1.1524E+00  1.9224E+00 -1.2896E+00 -1.7930E+02 -1.2689E+02 -1.1758E+02
    248  9.9542E+00 -6.2055E+00 -5.3445E+00  3.1568E+00  1.5747E+00 -1.7124E+00  1.9591E+02 -1.4079E+02 -8.8352E+01


            RADIAL DISTRIBUTION FUNCTIONS

calculated using       8000 configurations

g(r)  :Ar      Ar      

        r      g(r)         n(r)

    2.8750  0.000000E+00  0.000000E+00
    2.9250  0.000000E+00  0.000000E+00
    2.9750  8.213484E-05  9.765625E-06
    3.0250  7.705888E-04  1.044922E-04
    3.0750  7.111374E-03  1.007813E-03
    3.1250  3.162926E-02  5.157227E-03
    3.1750  1.052493E-01  1.941016E-02
    3.2250  2.675914E-01  5.679785E-02
    3.2750  5.383776E-01  1.343701E-01
    3.3250  9.162250E-01  2.704463E-01
    3.3750  1.359689E+00  4.785039E-01
    3.4250  1.800996E+00  7.623154E-01
    3.4750  2.189970E+00  1.117573E+00
    3.5250  2.485639E+00  1.532481E+00
    3.5750  2.675409E+00  1.991825E+00
    3.6250  2.767618E+00  2.480385E+00
    3.6750  2.772420E+00  2.983386E+00
    3.7250  2.723478E+00  3.491044E+00
    3.7750  2.608232E+00  3.990359E+00
    3.8250  2.472618E+00  4.476335E+00
    3.8750  2.317338E+00  4.943776E+00
    3.9250  2.163294E+00  5.391479E+00
    3.9750  2.003479E+00  5.816737E+00
    4.0250  1.858818E+00  6.221278E+00
    4.0750  1.709805E+00  6.602691E+00
    4.1250  1.583563E+00  6.964665E+00
    4.1750  1.467296E+00  7.308242E+00
    4.2250  1.362715E+00  7.635020E+00
    4.2750  1.270695E+00  7.946985E+00
    4.3250  1.182006E+00  8.244005E+00
    4.3750  1.107292E+00  8.528721E+00
    4.4250  1.040027E+00  8.802288E+00
    4.4750  9.737108E-01  9.064232E+00
    4.5250  9.230672E-01  9.318133E+00
    4.5750  8.741116E-01  9.563910E+00
    4.6250  8.312089E-01  9.802761E+00
    4.6750  7.958623E-01  1.003643E+01
    4.7250  7.635370E-01  1.026542E+01
    4.7750  7.348359E-01  1.049050E+01
    4.8250  7.066203E-01  1.071149E+01
    4.8750  6.832528E-01  1.092962E+01
    4.9250  6.677089E-01  1.114719E+01
    4.9750  6.513270E-01  1.136375E+01
    5.0250  6.417436E-01  1.158143E+01
    5.0750  6.344784E-01  1.180095E+01
    5.1250  6.238471E-01  1.202107E+01
    5.1750  6.213566E-01  1.224461E+01
    5.2250  6.169933E-01  1.247089E+01
    5.2750  6.170460E-01  1.270154E+01
    5.3250  6.184185E-01  1.293711E+01
    5.3750  6.207582E-01  1.317803E+01
    5.4250  6.294921E-01  1.342690E+01
    5.4750  6.395364E-01  1.368443E+01
    5.5250  6.491062E-01  1.395061E+01
    5.5750  6.640529E-01  1.422787E+01
    5.6250  6.785771E-01  1.451629E+01
    5.6750  6.945675E-01  1.481679E+01
    5.7250  7.123091E-01  1.513041E+01
    5.7750  7.330120E-01  1.545882E+01
    5.8250  7.554989E-01  1.580318E+01
    5.8750  7.813319E-01  1.616546E+01
    5.9250  8.064374E-01  1.654577E+01
    5.9750  8.342904E-01  1.694588E+01
    6.0250  8.619106E-01  1.736619E+01
    6.0750  8.907696E-01  1.780781E+01
    6.1250  9.189395E-01  1.827093E+01
    6.1750  9.462213E-01  1.875561E+01
    6.2250  9.771301E-01  1.926426E+01
    6.2750  1.002867E+00  1.979473E+01
    6.3250  1.029658E+00  2.034809E+01
    6.3750  1.059158E+00  2.092633E+01
    6.4250  1.081510E+00  2.152608E+01
    6.4750  1.102989E+00  2.214729E+01
    6.5250  1.128870E+00  2.279294E+01
    6.5750  1.152775E+00  2.346240E+01
    6.6250  1.171181E+00  2.415294E+01
    6.6750  1.188565E+00  2.486434E+01
    6.7250  1.204741E+00  2.559627E+01
    6.7750  1.219916E+00  2.634848E+01
    6.8250  1.230171E+00  2.711825E+01
    6.8750  1.244522E+00  2.790846E+01
    6.9250  1.253124E+00  2.871573E+01
    6.9750  1.257800E+00  2.953777E+01
    7.0250  1.259927E+00  3.037304E+01
    7.0750  1.257532E+00  3.121864E+01
    7.1250  1.251048E+00  3.207180E+01
    7.1750  1.241608E+00  3.293046E+01
    7.2250  1.227107E+00  3.379095E+01
    7.2750  1.215557E+00  3.465519E+01
    7.3250  1.198538E+00  3.551908E+01
    7.3750  1.181834E+00  3.638259E+01
    7.4250  1.159239E+00  3.724112E+01
    7.4750  1.141246E+00  3.809775E+01
    7.5250  1.119904E+00  3.894964E+01
    7.5750  1.100698E+00  3.979808E+01
    7.6250  1.076905E+00  4.063918E+01
    7.6750  1.054528E+00  4.147364E+01
    7.7250  1.032915E+00  4.230168E+01
    7.7750  1.013742E+00  4.312491E+01
    7.8250  9.940091E-01  4.394252E+01
    7.8750  9.773499E-01  4.475674E+01
    7.9250  9.597979E-01  4.556652E+01
    7.9750  9.447488E-01  4.637370E+01
    8.0250  9.291343E-01  4.717752E+01
    8.0750  9.165087E-01  4.798033E+01
    8.1250  9.020159E-01  4.878025E+01
    8.1750  8.895724E-01  4.957888E+01
    8.2250  8.815042E-01  5.037998E+01
    8.2750  8.722119E-01  5.118230E+01
    8.3250  8.643415E-01  5.198702E+01
    8.3750  8.596890E-01  5.279705E+01
    8.4250  8.559685E-01  5.361323E+01
    8.4750  8.556370E-01  5.443881E+01

 time elapsed since job start =          11.554 seconds

